------------------------------------------------------------
          Invoking FHI-aims ...

          When using FHI-aims, please cite the following reference:

            Volker Blum, Ralf Gehrke, Felix Hanke, Paula Havu,
            Ville Havu, Xinguo Ren, Karsten Reuter, and Matthias Scheffler,
            'Ab Initio Molecular Simulations with Numeric Atom-Centered Orbitals',
            Computer Physics Communications 180, 2175-2196 (2009)

          In addition, many other developments in FHI-aims are likely important for
          your particular application. A partial list of references is given at the end of
          this file. Thank you for giving credit to the authors of these developments.

          For any questions about FHI-aims, please visit our slack channel at

            https://fhi-aims.slack.com

          and our main development and support site at

            https://aims-git.rz-berlin.mpg.de .

          The latter site, in particular, has a wiki to collect information, as well
          as an issue tracker to log discussions, suggest improvements, and report issues
          or bugs. https://aims-git.rz-berlin.mpg.de is also the main development site
          of the project and all new and updated code versions can be obtained there.
          Please send an email to aims-coordinators@fhi-berlin.mpg.de and we will add
          you to these sites. They are for you and everyone is welcome there.

------------------------------------------------------------



  Date     :  20211124, Time     :  190212.450
  Time zero on CPU 1             :   0.319040000000000E-01  s.
  Internal wall clock time zero  :           407012532.450  s.

  FHI-aims created a unique identifier for this run for later identification
  aims_uuid : 4B870215-9BC0-4192-AB8E-ACC980161C6D

  Build configuration of the current instance of FHI-aims
  -------------------------------------------------------
  FHI-aims version      : 210513
  Commit number         : cae7accea
  CMake host system     : Linux-4.15.0-43-generic
  CMake version         : 3.10.2
  Fortran compiler      : /home/purcell/intel/oneapi/mpi/2021.1-beta10/bin/mpiifort (Intel) version 20.2.1.20200827
  Fortran compiler flags: -O3 -ip -fp-model precise
  C compiler            : /home/purcell/intel/oneapi/compiler/2021.1-beta10/linux/bin/intel64/icc (Intel) version 20.2.1.20200827
  C compiler flags      : -O3 -ip -fp-model precise -std=gnu99
  C++ compiler          : /usr/bin/c++ (GNU) version 7.5.0
  C++ compiler flags    :
  ELPA2 kernel          : AVX2
  Using MPI
  Using ScaLAPACK
  Using LibXC
  Using i-PI
  Using RLSY
  Linking against: /home/purcell/intel/oneapi/mkl/2021.1-beta10/lib/intel64/libmkl_scalapack_lp64.so
                   /home/purcell/intel/oneapi/mkl/2021.1-beta10/lib/intel64/libmkl_blacs_intelmpi_lp64.so
                   /home/purcell/intel/oneapi/mkl/2021.1-beta10/lib/intel64/libmkl_intel_lp64.so
                   /home/purcell/intel/oneapi/mkl/2021.1-beta10/lib/intel64/libmkl_sequential.so
                   /home/purcell/intel/oneapi/mkl/2021.1-beta10/lib/intel64/libmkl_core.so

  Using        4 parallel tasks.
  Task        0 on host theobook reporting.
  Task        1 on host theobook reporting.
  Task        2 on host theobook reporting.
  Task        3 on host theobook reporting.

  Performing system and environment tests:
  *** Environment variable OMP_NUM_THREADS is set to 
  2
  *** For performance reasons you might want to set it to 1
  | Checking for ScaLAPACK...
  | Testing pdtran()...
  | All pdtran() tests passed.

  Obtaining array dimensions for all initial allocations:
  
  -----------------------------------------------------------------------
  Parsing control.in (first pass over file, find array dimensions only).
  The contents of control.in will be repeated verbatim below
  unless switched off by setting 'verbatim_writeout .false.' .
  in the first line of control.in .
  -----------------------------------------------------------------------
  
  #===============================================================================
  # FHI-aims file: ./control.in
  # Created using the Atomic Simulation Environment (ASE)
  # Fri Nov  5 10:46:34 2021
  #===============================================================================
  xc                                 pw-lda
  sc_accuracy_rho                    1e-06
  relativistic                       atomic_zora scalar
  relax_geometry                     trm 0.001
  #===============================================================================
  ################################################################################
  #
  #  FHI-aims code project
  #  VB, Fritz-Haber Institut, 2009
  #
  #  Suggested "light" defaults for H atom (to be pasted into control.in file)
  #  Be sure to double-check any results obtained with these settings for post-processing,
  #  e.g., with the "tight" defaults and larger basis sets.
  #
  ################################################################################
    species        H
  #     global species definitions
      nucleus             1
      mass                1.00794
  #
      l_hartree           4
  #
      cut_pot             3.5  1.5  1.0
      basis_dep_cutoff    1e-4
  #
      radial_base         24 5.0
      radial_multiplier   1
      angular_grids       specified
        division   0.2421   50
        division   0.3822  110
        division   0.4799  194
        division   0.5341  302
  #      division   0.5626  434
  #      division   0.5922  590
  #      division   0.6542  770
  #      division   0.6868 1202
  #      outer_grid  770
        outer_grid  302
  ################################################################################
  #
  #  Definition of "minimal" basis
  #
  ################################################################################
  #     valence basis states
      valence      1  s   1.
  #     ion occupancy
      ion_occ      1  s   0.5
  ################################################################################
  #
  #  Suggested additional basis functions. For production calculations,
  #  uncomment them one after another (the most important basis functions are
  #  listed first).
  #
  #  Basis constructed for dimers: 0.5 A, 0.7 A, 1.0 A, 1.5 A, 2.5 A
  #
  ################################################################################
  #  "First tier" - improvements: -1014.90 meV to -62.69 meV
       hydro 2 s 2.1
       hydro 2 p 3.5
  #  "Second tier" - improvements: -12.89 meV to -1.83 meV
  #     hydro 1 s 0.85
  #     hydro 2 p 3.7
  #     hydro 2 s 1.2
  #     hydro 3 d 7
  #  "Third tier" - improvements: -0.25 meV to -0.12 meV
  #     hydro 4 f 11.2
  #     hydro 3 p 4.8
  #     hydro 4 d 9
  #     hydro 3 s 3.2
  ################################################################################
  #
  #  FHI-aims code project
  #  VB, Fritz-Haber Institut, 2009
  #
  #  Suggested "light" defaults for O atom (to be pasted into control.in file)
  #  Be sure to double-check any results obtained with these settings for post-processing,
  #  e.g., with the "tight" defaults and larger basis sets.
  #
  ################################################################################
    species        O
  #     global species definitions
      nucleus             8
      mass                15.9994
  #
      l_hartree           4
  #
      cut_pot             3.5  1.5  1.0
      basis_dep_cutoff    1e-4
  #
      radial_base         36 5.0
      radial_multiplier   1
       angular_grids specified
        division   0.2659   50
        division   0.4451  110
        division   0.6052  194
        division   0.7543  302
  #      division   0.8014  434
  #      division   0.8507  590
  #      division   0.8762  770
  #      division   0.9023  974
  #      division   1.2339 1202
  #      outer_grid 974
        outer_grid 302
  ################################################################################
  #
  #  Definition of "minimal" basis
  #
  ################################################################################
  #     valence basis states
      valence      2  s   2.
      valence      2  p   4.
  #     ion occupancy
      ion_occ      2  s   1.
      ion_occ      2  p   3.
  ################################################################################
  #
  #  Suggested additional basis functions. For production calculations,
  #  uncomment them one after another (the most important basis functions are
  #  listed first).
  #
  #  Constructed for dimers: 1.0 A, 1.208 A, 1.5 A, 2.0 A, 3.0 A
  #
  ################################################################################
  #  "First tier" - improvements: -699.05 meV to -159.38 meV
       hydro 2 p 1.8
       hydro 3 d 7.6
       hydro 3 s 6.4
  #  "Second tier" - improvements: -49.91 meV to -5.39 meV
  #     hydro 4 f 11.6
  #     hydro 3 p 6.2
  #     hydro 3 d 5.6
  #     hydro 5 g 17.6
  #     hydro 1 s 0.75
  #  "Third tier" - improvements: -2.83 meV to -0.50 meV
  #     ionic 2 p auto
  #     hydro 4 f 10.8
  #     hydro 4 d 4.7
  #     hydro 2 s 6.8
  #  "Fourth tier" - improvements: -0.40 meV to -0.12 meV
  #     hydro 3 p 5
  #     hydro 3 s 3.3
  #     hydro 5 g 15.6
  #     hydro 4 f 17.6
  #     hydro 4 d 14
  # Further basis functions - -0.08 meV and below
  #     hydro 3 s 2.1
  #     hydro 4 d 11.6
  #     hydro 3 p 16
  #     hydro 2 s 17.2
  
  -----------------------------------------------------------------------
  Completed first pass over input file control.in .
  -----------------------------------------------------------------------
  
  
  -----------------------------------------------------------------------
  Parsing geometry.in (first pass over file, find array dimensions only).
  The contents of geometry.in will be repeated verbatim below
  unless switched off by setting 'verbatim_writeout .false.' .
  in the first line of geometry.in .
  -----------------------------------------------------------------------
  
  atom  0.0000000000000000 0.0000000000000000 0.0000000000000000 O
  atom  0.9584000000000000 0.0000000000000000 0.0000000000000000 H
  atom -0.2400000000000000 0.9279000000000000 0.0000000000000000 H
  
  -----------------------------------------------------------------------
  Completed first pass over input file geometry.in .
  -----------------------------------------------------------------------
  

  Basic array size parameters:
  | Number of species                 :        2
  | Number of atoms                   :        3
  | Max. basis fn. angular momentum   :        2
  | Max. atomic/ionic basis occupied n:        2
  | Max. number of basis fn. types    :        2
  | Max. radial fns per species/type  :        3
  | Max. logarithmic grid size        :     1301
  | Max. radial integration grid size :       36
  | Max. angular integration grid size:      302
  | Max. angular grid division number :        8
  | Radial grid for Hartree potential :     1301
  | Number of spin channels           :        1

------------------------------------------------------------
          Reading file control.in.
------------------------------------------------------------
  XC: Using Perdew-Wang parametrisation of Ceperley-Alder LDA.
  Convergence accuracy of self-consistent charge density:  0.1000E-05
  Scalar relativistic treatment of kinetic energy: on-site free-atom approximation to ZORA.
  Geometry relaxation: Modified BFGS - TRM (trust radius method) for lattice optimization.
  Convergence accuracy for geometry relaxation: Maximum force <   0.100000E-02 eV/A.
 
  Reading configuration options for species H                   .
  | Found nuclear charge :   1.0000
  | Found atomic mass :    1.00794000000000      amu
  | Found l_max for Hartree potential  :   4
  | Found cutoff potl. onset [A], width [A], scale factor :    3.50000    1.50000    1.00000
  | Threshold for basis-dependent cutoff potential is   0.100000E-03
  | Found data for basic radial integration grid :    24 points, outermost radius =    5.000 A
  | Found multiplier for basic radial grid :   1
  | Found angular grid specification: user-specified.
  | Specified grid contains     5 separate shells.
  | Check grid settings after all constraints further below.
  | Found free-atom valence shell :  1 s   1.000
  | No ionic wave fns used. Skipping ion_occ.
  | Found hydrogenic basis function :  2 s   2.100
  | Found hydrogenic basis function :  2 p   3.500
  Species H                   : Missing cutoff potential type.
  Defaulting to exp(1/x)/(1-x)^2 type cutoff potential.
  Species H : No 'logarithmic' tag. Using default grid for free atom:
  | Default logarithmic grid data [bohr] : 0.1000E-03 0.1000E+03 0.1012E+01
  Species H : On-site basis accuracy parameter (for Gram-Schmidt orthonormalisation) not specified.
  Using default value basis_acc =  0.1000000E-03.
  Species H                   : Using default innermost maximum threshold i_radial=  2 for radial functions.
  Species H                   : Default cutoff onset for free atom density etc. : 0.35000000E+01 AA.
  Species H                   : Basic radial grid will be enhanced according to radial_multiplier =   1, to contain    24 grid points.
 
  Reading configuration options for species O                   .
  | Found nuclear charge :   8.0000
  | Found atomic mass :    15.9994000000000      amu
  | Found l_max for Hartree potential  :   4
  | Found cutoff potl. onset [A], width [A], scale factor :    3.50000    1.50000    1.00000
  | Threshold for basis-dependent cutoff potential is   0.100000E-03
  | Found data for basic radial integration grid :    36 points, outermost radius =    5.000 A
  | Found multiplier for basic radial grid :   1
  | Found angular grid specification: user-specified.
  | Specified grid contains     5 separate shells.
  | Check grid settings after all constraints further below.
  | Found free-atom valence shell :  2 s   2.000
  | Found free-atom valence shell :  2 p   4.000
  | No ionic wave fns used. Skipping ion_occ.
  | No ionic wave fns used. Skipping ion_occ.
  | Found hydrogenic basis function :  2 p   1.800
  | Found hydrogenic basis function :  3 d   7.600
  | Found hydrogenic basis function :  3 s   6.400
  Species O                   : Missing cutoff potential type.
  Defaulting to exp(1/x)/(1-x)^2 type cutoff potential.
  Species O : No 'logarithmic' tag. Using default grid for free atom:
  | Default logarithmic grid data [bohr] : 0.1000E-03 0.1000E+03 0.1012E+01
  Species O : On-site basis accuracy parameter (for Gram-Schmidt orthonormalisation) not specified.
  Using default value basis_acc =  0.1000000E-03.
  Species O                   : Using default innermost maximum threshold i_radial=  2 for radial functions.
  Species O                   : Default cutoff onset for free atom density etc. : 0.35000000E+01 AA.
  Species O                   : Basic radial grid will be enhanced according to radial_multiplier =   1, to contain    36 grid points.
 
  Finished reading input file 'control.in'.
 
------------------------------------------------------------


------------------------------------------------------------
          Reading geometry description geometry.in.
------------------------------------------------------------
  | The smallest distance between any two atoms is         0.95840000 AA.
  | The first atom of this pair is atom number                      1 .
  | The second atom of this pair is atom number                     2 .
  Input structure read successfully.
  The structure contains        3 atoms,  and a total of         10.000 electrons.

  Input geometry:
  | No unit cell requested.
  | Atomic structure:
  |       Atom                x [A]            y [A]            z [A]
  |    1: Species O             0.00000000        0.00000000        0.00000000
  |    2: Species H             0.95840000        0.00000000        0.00000000
  |    3: Species H            -0.24000000        0.92790000        0.00000000

 
  Finished reading input file 'control.in'.
 

------------------------------------------------------------
          Reading geometry description geometry.in.
------------------------------------------------------------
 
  Consistency checks for stacksize environment parameter are next.
 
  | Maximum stacksize for task 0: unlimited
  | Maximum stacksize for task 1: unlimited
  | Maximum stacksize for task 2: unlimited
  | Maximum stacksize for task 3: unlimited
  | Current stacksize for task 0: unlimited
  | Current stacksize for task 1: unlimited
  | Current stacksize for task 2: unlimited
  | Current stacksize for task 3: unlimited
 
  Consistency checks for the contents of control.in are next.
 
  MPI_IN_PLACE appears to work with this MPI implementation.
  | Keeping use_mpi_in_place .true. (see manual).
  Target number of points in a grid batch is not set. Defaulting to  100
  Method for grid partitioning is not set. Defaulting to parallel hash+maxmin partitioning.
  Batch size limit is not set. Defaulting to    200
  By default, will store active basis functions for each batch.
  If in need of memory, prune_basis_once .false. can be used to disable this option.
  communication_type for Hartree potential was not specified.
  Defaulting to calc_hartree .
  Defaulting to Pulay charge density mixer.
  Pulay mixer: Number of relevant iterations not set.
  Defaulting to    8 iterations.
  Pulay mixer: Number of initial linear mixing iterations not set.
  Defaulting to    0 iterations.
  Work space size for distributed Hartree potential not set.
  Defaulting to   0.200000E+03 MB.
  Mixing parameter for charge density mixing has not been set.
  Using default: charge_mix_param =     0.0500.
  The mixing parameter will be adjusted in iteration number     2 of the first full s.c.f. cycle only.
  Algorithm-dependent basis array size parameters:
  | n_max_pulay                         :        8
  Maximum number of self-consistency iterations not provided.
  Presetting  1000 iterations.
  Presetting      1001 iterations before the initial mixing cycle
  is restarted anyway using the sc_init_iter criterion / keyword.
  Presetting a factor      1.000 between actual scf density residual
  and density convergence criterion sc_accuracy_rho below which sc_init_iter
  takes no effect.
  No maximum number of relaxation steps, defaulting to     1000
  Default initial Hessian is Lindh matrix (thres = 15.00) plus  0.200000E+01 eV/A^2 times unity.
  No maximum energy tolerance for TRM/BFGS moves, defaulting to   0.100000E-02
  Maximum energy tolerance by which TRM/BFGS trajectory may increase over multiple steps:   0.300000E-02
  No harmonic length scale. Defaulting to   0.250000E-01 A.
  No trust radius initializer. Defaulting to   0.200000E+00 A.
  Forces evaluation will include force correction term due to incomplete self-consistency (default).
  Force calculation: scf convergence accuracy of forces not set.
  Defaulting to 'sc_accuracy_forces not_checked'.
  Handling of forces: Unphysical translation and rotation will be removed from forces.
  No accuracy limit for integral partition fn. given. Defaulting to  0.1000E-14.
  No threshold value for u(r) in integrations given. Defaulting to  0.1000E-05.
  No occupation type (smearing scheme) given. Defaulting to Gaussian broadening, width =  0.1000E-01 eV.
  The width will be adjusted in iteration number     2 of the first full s.c.f. cycle only.
  S.C.F. convergence parameters will be adjusted in iteration number     2 of the first full s.c.f. cycle only.
  No accuracy for occupation numbers given. Defaulting to  0.1000E-12.
  No threshold value for occupation numbers given. Defaulting to  0.0000E+00.
  No accuracy for fermi level given. Defaulting to  0.1000E-19.
  Maximum # of iterations to find E_F not set. Defaulting to  200.
  Preferred method for the eigenvalue solver ('KS_method') not specified in 'control.in'.
  Calling BLACS routine to test compilation state
  Since ScaLAPACK support is enabled, defaulting to ELPA (via ELSI).
  Will not use alltoall communication since running on < 1024 CPUs.
  Threshold for basis singularities not set.
  Default threshold for basis singularities:  0.1000E-04
  partition_type (choice of integration weights) for integrals was not specified.
  | Using a version of the partition function of Stratmann and coworkers ('stratmann_sparse').
  | At each grid point, the set of atoms used to build the partition table is smoothly restricted to
  | only those atoms whose free-atom density would be non-zero at that grid point.
  Partitioning for Hartree potential was not defined. Using partition_type for integrals.
  | Adjusted default value of keyword multip_moments_threshold to:       0.10000000E-11
  | This value may affect high angular momentum components of the Hartree potential in periodic systems.
  Spin handling was not defined in control.in. Defaulting to unpolarized case.
  No q(lm)/r^(l+1) cutoff set for long-range Hartree potential.
  | Using default value of  0.100000E-09 .
  | Verify using the multipole_threshold keyword.
  Defaulting to new monopole extrapolation.
  Density update method: automatic selection selected.
  Geometry relaxation: A file "geometry.in.next_step" is written out by default after each step.
  | This file contains the geometry of the current relaxation step as well as
  | the current Hessian matrix needed to restart the relaxation algorithm.
  | If you do not want part or all of this information, use the keywords
  | "write_restart_geometry" or "hessian_to_restart_geometry" to switch the output off.
  Charge integration errors on the 3D integration grid will be compensated
  by explicit normalization and distribution of residual charges.
  Use the "compensate_multipole_errors" flag to change this behaviour.
  Set 'collect_eigenvectors' to be '.true.' for use_density_matrix .false.
 
  Consistency checks for the contents of geometry.in are next.
 
  Number of empty states per atom not set in control.in - providing a guess from actual geometry.
  | Total number of empty states used during s.c.f. cycle:        6
  If you use a very high smearing, use empty_states (per atom!) in control.in to increase this value.

  Structure-dependent array size parameters: 
  | Maximum number of distinct radial functions  :        9
  | Maximum number of basis functions            :       24
  | Number of Kohn-Sham states (occupied + empty):       11
------------------------------------------------------------

------------------------------------------------------------
          Preparing all fixed parts of the calculation.
------------------------------------------------------------
  Determining machine precision:
    2.225073858507201E-308
  Setting up grids for atomic and cluster calculations.

  Creating wave function, potential, and density for free atoms.

  Species: H

  List of occupied orbitals and eigenvalues:
    n    l              occ      energy [Ha]    energy [eV]
    1    0           1.0000        -0.232378        -6.3233


  Species: O

  List of occupied orbitals and eigenvalues:
    n    l              occ      energy [Ha]    energy [eV]
    1    0           2.0000       -18.786109      -511.1960
    2    0           2.0000        -0.872635       -23.7456
    2    1           4.0000        -0.337687        -9.1889


  Adding cutoff potential to free-atom effective potential.
  Creating fixed part of basis set: Ionic, confined, hydrogenic.
 
  H                    hydrogenic:
 
  List of hydrogenic basis orbitals: 
    n    l      effective z      eigenvalue [eV]  inner max. [A]     outer max. [A]     outer radius [A]   
    2    0         2.100000       -14.9728           0.193243           1.317208           4.583499
    2    1         3.500000       -41.6669           0.602369           0.602369           3.723403
 
 
  O                    hydrogenic:
 
  List of hydrogenic basis orbitals: 
    n    l      effective z      eigenvalue [eV]  inner max. [A]     outer max. [A]     outer radius [A]   
    2    1         1.800000       -10.9749           1.164242           1.164242           4.578029
    3    2         7.600000       -87.3180           0.624125           0.624125           3.251020
    3    0         6.400000       -61.9207           0.061167           1.081902           4.001998
 
  Creating atomic-like basis functions for current effective potential.

  Species H                   :

  List of atomic basis orbitals and eigenvalues:
    n    l      energy [Ha]    energy [eV]    outer radius [A]
    1    0        -0.232378        -6.3233       4.527807


  Species O                   :

  List of atomic basis orbitals and eigenvalues:
    n    l      energy [Ha]    energy [eV]    outer radius [A]
    1    0       -18.786109      -511.1960       1.433179
    2    0        -0.872635       -23.7456       4.413171
    2    1        -0.337687        -9.1889       4.522403

  Assembling full basis from fixed parts.
  | Species H :   atomic orbital   1 s accepted.
  | Species H :    hydro orbital   2 s accepted.
  | Species H :    hydro orbital   2 p accepted.
  | Species O :   atomic orbital   1 s accepted.
  | Species O :    hydro orbital   3 s accepted.
  | Species O :   atomic orbital   2 s accepted.
  | Species O :   atomic orbital   2 p accepted.
  | Species O :    hydro orbital   2 p accepted.
  | Species O :    hydro orbital   3 d accepted.
 
  Basis size parameters after reduction:
  | Total number of radial functions:        9
  | Total number of basis functions :       24
 
  Per-task memory consumption for arrays in subroutine allocate_ext:
  |           2.998708MB.
  Testing on-site integration grid accuracy.
  |  Species  Function  <phi|h_atom|phi> (log., in eV)  <phi|h_atom|phi> (rad., in eV)
           1        1                 -6.3246251765                 -6.3233331181
           1        2                 14.1313906092                 14.1372326594
           1        3                 25.3615426212                 25.3616852158
           2        4               -511.1960429777               -511.1959399133
           2        5                 14.8973166466                 14.8974402823
           2        6                -21.2682165807                -21.2682317485
           2        7                 -9.1890598667                 -9.1892026751
           2        8                  8.1915160719                  8.1720639763
           2        9                 45.8005976646                 45.8005620229

  Preparing densities etc. for the partition functions (integrals / Hartree potential).

  Preparations completed.
  max(cpu_time)          :      0.108 s.
  Wall clock time (cpu1) :      0.108 s.
------------------------------------------------------------

------------------------------------------------------------
          Begin self-consistency loop: Initialization.

          Date     :  20211124, Time     :  190212.618
------------------------------------------------------------

  Initializing index lists of integration centers etc. from given atomic structure:
  | Number of centers in hartree potential         :         3
  | Number of centers in hartree multipole         :         3
  | Number of centers in electron density summation:         3
  | Number of centers in basis integrals           :         3
  | Number of centers in integrals                 :         3
  | Number of centers in hamiltonian               :         3

  Initializing relaxation algorithms.
  Finished initialization of distributed Hessian storage.
  | Global dimension:         9
  | BLACS block size:         3
  | Number of workers:        3

  * Using 4 tasks for Scalapack Eigenvalue solver.
  Detailed listing of tasks and assigned k-points:
  (for non-periodic systems, the "k-point" denotes an internal label only)
   Task     0 k-point     1 on theobook
   Task     1 k-point     1 on theobook
   Task     2 k-point     1 on theobook
   Task     3 k-point     1 on theobook
  Tasks:     4 split into      2 X      2 BLACS grid
  Calculating block size based on n_basis =           24  max_nprow =            2  max_npcol =            2
  ScaLAPACK block size set to:            8
  Allocating        0.002 MB for ovlp
  Allocating        0.002 MB for ham
  Allocating        0.002 MB for eigenvec
  Required Scalapack workspace - INTEGER:            1  REAL:             1
  Partitioning the integration grid into batches with parallel hashing+maxmin method.
  | Number of batches:      224
  | Maximal batch size:      88
  | Minimal batch size:      57
  | Average batch size:      71.089
  | Standard deviation of batch sizes:       7.975

  Integration load balanced across     4 MPI tasks.
  Work distribution over tasks is as follows:
  Task     0 has       4015 integration points.
  Task     1 has       3983 integration points.
  Task     2 has       3982 integration points.
  Task     3 has       3944 integration points.
  Initializing partition tables, free-atom densities, potentials, etc. across the integration grid (initialize_grid_storage).
  | initialize_grid_storage: Actual outermost partition radius vs. multipole_radius_free
  | (-- VB: in principle, multipole_radius_free should be larger, hence this output)
  | Species        1: Confinement radius =              4.999999999999999 AA, multipole_radius_free =              5.054417573612229 AA.
  | Species        1: outer_partition_radius set to              5.054417573612229 AA .
  | Species        2: Confinement radius =              4.999999999999999 AA, multipole_radius_free =              5.048384829883283 AA.
  | Species        2: outer_partition_radius set to              5.048384829883283 AA .
  | The sparse table of interatomic distances needs          0.09 kbyte instead of         0.07 kbyte of memory.
  | Using the partition_type stratmann_smoother will reduce your memory usage.
  | Net number of integration points:    15924
  | of which are non-zero points    :    14477
  Renormalizing the initial density to the exact electron count on the 3D integration grid.
  | Initial density: Formal number of electrons (from input files) :      10.0000000000
  | Integrated number of electrons on 3D grid     :       9.9999369396
  | Charge integration error                      :      -0.0000630604
  | Normalization factor for density and gradient :       1.0000063061
  Renormalizing the free-atom superposition density to the exact electron count on the 3D integration grid.
  | Formal number of electrons (from input files) :      10.0000000000
  | Integrated number of electrons on 3D grid     :       9.9999369396
  | Charge integration error                      :      -0.0000630604
  | Normalization factor for density and gradient :       1.0000063061
  Obtaining max. number of non-zero basis functions in each batch (get_n_compute_maxes).
  | Maximal number of non-zero basis functions:       24 in task     0
  | Maximal number of non-zero basis functions:       24 in task     1
  | Maximal number of non-zero basis functions:       24 in task     2
  | Maximal number of non-zero basis functions:       24 in task     3
  Selecting the method for density update.
  Loop over occupied states selected for charge density update.
  Allocating        0.002 MB for KS_eigenvector
  Integrating Hamiltonian matrix: batch-based integration.
  Time summed over all CPUs for integration: real work        0.031 s, elapsed        0.036 s
  Integrating overlap matrix.
  Time summed over all CPUs for integration: real work        0.011 s, elapsed        0.015 s
  Deallocating overlap matrix.

  Updating Kohn-Sham eigenvalues and eigenvectors using ELSI and the ELPA eigensolver.
  Overlap matrix is not singular
  | Lowest and highest eigenvalues :  0.1574E-01,  0.2714E+01
  Finished singularity check of overlap matrix
  | Time :     0.000 s
  Starting ELPA eigensolver
  Finished Cholesky decomposition
  | Time :     0.001 s
  Finished transformation to standard eigenproblem
  | Time :     0.000 s
  Finished solving standard eigenproblem
  | Time :     0.001 s
  Finished back-transformation of eigenvectors
  | Time :     0.000 s

  Obtaining occupation numbers and chemical potential using ELSI.
  | Chemical potential (Fermi level):    -2.59158518 eV
  Writing Kohn-Sham eigenvalues.

  State    Occupation    Eigenvalue [Ha]    Eigenvalue [eV]
      1       2.00000         -18.902628         -514.36669
      2       2.00000          -1.104933          -30.06677
      3       2.00000          -0.643486          -17.51014
      4       2.00000          -0.520673          -14.16822
      5       2.00000          -0.451426          -12.28392
      6       0.00000          -0.054392           -1.48009
      7       0.00000           0.028594            0.77809
      8       0.00000           0.206923            5.63067
      9       0.00000           0.236283            6.42958
     10       0.00000           0.292273            7.95316
     11       0.00000           0.511451           13.91729

  Highest occupied state (VBM) at    -12.28392263 eV
  | Occupation number:      2.00000000

  Lowest unoccupied state (CBM) at    -1.48008793 eV
  | Occupation number:      0.00000000

  Overall HOMO-LUMO gap:     10.80383470 eV.
  Calculating total energy contributions from superposition of free atom densities.

  Total energy components:
  | Sum of eigenvalues            :         -43.24629229 Ha       -1176.79148772 eV
  | XC energy correction          :          -8.51756845 Ha        -231.77483012 eV
  | XC potential correction       :          11.21917906 Ha         305.28939513 eV
  | Free-atom electrostatic energy:         -35.52816823 Ha        -966.77064642 eV
  | Hartree energy correction     :           0.00000000 Ha           0.00000000 eV
  | Entropy correction            :           0.00000000 Ha           0.00000000 eV
  | ---------------------------
  | Total energy                  :         -76.07284992 Ha       -2070.04756913 eV
  | Total energy, T -> 0          :         -76.07284992 Ha       -2070.04756913 eV  <-- do not rely on this value for anything but (periodic) metals
  | Electronic free energy        :         -76.07284992 Ha       -2070.04756913 eV

  Derived energy quantities:
  | Kinetic energy                :          75.05966974 Ha        2042.47753373 eV
  | Electrostatic energy          :        -142.61495121 Ha       -3880.75027274 eV
  | Energy correction for multipole
  | error in Hartree potential    :           0.00000000 Ha           0.00000000 eV
  | Sum of eigenvalues per atom                           :        -392.26382924 eV
  | Total energy (T->0) per atom                          :        -690.01585638 eV  <-- do not rely on this value for anything but (periodic) metals
  | Electronic free energy per atom                       :        -690.01585638 eV
  Initialize hartree_potential_storage
  Max. number of atoms included in rho_multipole:            3

  End scf initialization - timings             :  max(cpu_time)    wall_clock(cpu1)
  | Time for scf. initialization               :        0.036 s           0.036 s
  | Boundary condition initialization          :        0.000 s           0.000 s
  | Relaxation initialization                  :        0.001 s           0.001 s
  | Integration                                :        0.013 s           0.013 s
  | Solution of K.-S. eqns.                    :        0.003 s           0.003 s
  | Grid partitioning                          :        0.008 s           0.009 s
  | Preloading free-atom quantities on grid    :        0.004 s           0.004 s
  | Free-atom superposition energy             :        0.005 s           0.005 s
  | Total energy evaluation                    :        0.000 s           0.000 s

  Partial memory accounting:
  | Current value for overall tracked memory usage:
  |   Minimum:        0.007 MB (on task 3)
  |   Maximum:        0.012 MB (on task 0)
  |   Average:        0.009 MB
  | Peak value for overall tracked memory usage:
  |   Minimum:        0.074 MB (on task 3 after allocating grid_partition)
  |   Maximum:        0.182 MB (on task 0 after allocating grid_partition)
  |   Average:        0.142 MB
  | Largest tracked array allocation so far:
  |   Minimum:        0.047 MB (all_coords on task 3)
  |   Maximum:        0.116 MB (all_coords on task 0)
  |   Average:        0.091 MB
  Note:  These values currently only include a subset of arrays which are explicitly tracked.
  The "true" memory usage will be greater.
------------------------------------------------------------
  Evaluating new KS density.
  Integration grid: deviation in total charge (<rho> - N_e) =   7.105427E-15

  Time for density update prior                :  max(cpu_time)    wall_clock(cpu1)
  | self-consistency iterative process         :        0.003 s           0.003 s

------------------------------------------------------------
          Begin self-consistency iteration #    1

  Date     :  20211124, Time     :  190212.657
------------------------------------------------------------
  Pulay mixing of updated and previous charge densities.
  Renormalizing the density to the exact electron count on the 3D integration grid.
  | Formal number of electrons (from input files) :      10.0000000000
  | Integrated number of electrons on 3D grid     :      10.0000000000
  | Charge integration error                      :       0.0000000000
  | Normalization factor for density and gradient :       1.0000000000

  Evaluating partitioned Hartree potential by multipole expansion.
  | Original multipole sum: apparent total charge =   0.312084E-14
  | Sum of charges compensated after spline to logarithmic grids =   0.129543E-04
  | Analytical far-field extrapolation by fixed multipoles:
  | Hartree multipole sum: apparent total charge =   0.307164E-14
  Summing up the Hartree potential.
  Time summed over all CPUs for potential: real work        0.018 s, elapsed        0.021 s
  | RMS charge density error from multipole expansion :   0.364695E-03

  Integrating Hamiltonian matrix: batch-based integration.
  Time summed over all CPUs for integration: real work        0.028 s, elapsed        0.032 s

  Updating Kohn-Sham eigenvalues and eigenvectors using ELSI and the ELPA eigensolver.
  Starting ELPA eigensolver
  Finished transformation to standard eigenproblem
  | Time :     0.000 s
  Finished solving standard eigenproblem
  | Time :     0.001 s
  Finished back-transformation of eigenvectors
  | Time :     0.000 s

  Obtaining occupation numbers and chemical potential using ELSI.
  | Chemical potential (Fermi level):    -2.38949542 eV
  Writing Kohn-Sham eigenvalues.

  State    Occupation    Eigenvalue [Ha]    Eigenvalue [eV]
      1       2.00000         -18.861652         -513.25165
      2       2.00000          -1.084868          -29.52076
      3       2.00000          -0.625876          -17.03095
      4       2.00000          -0.500060          -13.60732
      5       2.00000          -0.430068          -11.70274
      6       0.00000          -0.049670           -1.35160
      7       0.00000           0.035045            0.95363
      8       0.00000           0.215745            5.87071
      9       0.00000           0.245619            6.68363
     10       0.00000           0.298674            8.12732
     11       0.00000           0.517795           14.08993

  Highest occupied state (VBM) at    -11.70273967 eV
  | Occupation number:      2.00000000

  Lowest unoccupied state (CBM) at    -1.35159516 eV
  | Occupation number:      0.00000000

  Overall HOMO-LUMO gap:     10.35114451 eV.

  Total energy components:
  | Sum of eigenvalues            :         -43.00504592 Ha       -1170.22683984 eV
  | XC energy correction          :          -8.54446688 Ha        -232.50677369 eV
  | XC potential correction       :          11.25467192 Ha         306.25520492 eV
  | Free-atom electrostatic energy:         -35.52816823 Ha        -966.77064642 eV
  | Hartree energy correction     :          -0.23072422 Ha          -6.27832536 eV
  | Entropy correction            :           0.00000000 Ha           0.00000000 eV
  | ---------------------------
  | Total energy                  :         -76.05373333 Ha       -2069.52738039 eV
  | Total energy, T -> 0          :         -76.05373333 Ha       -2069.52738039 eV  <-- do not rely on this value for anything but (periodic) metals
  | Electronic free energy        :         -76.05373333 Ha       -2069.52738039 eV

  Derived energy quantities:
  | Kinetic energy                :          75.22743083 Ha        2047.04254538 eV
  | Electrostatic energy          :        -142.73669728 Ha       -3884.06315208 eV
  | Energy correction for multipole
  | error in Hartree potential    :           0.00010975 Ha           0.00298652 eV
  | Sum of eigenvalues per atom                           :        -390.07561328 eV
  | Total energy (T->0) per atom                          :        -689.84246013 eV  <-- do not rely on this value for anything but (periodic) metals
  | Electronic free energy per atom                       :        -689.84246013 eV
  Evaluating new KS density.
  Integration grid: deviation in total charge (<rho> - N_e) =   3.552714E-15

  Self-consistency convergence accuracy:
  | Change of charge density      :  0.3189E+00
  | Change of sum of eigenvalues  :  0.6565E+01 eV
  | Change of total energy        :  0.5202E+00 eV


------------------------------------------------------------
  End self-consistency iteration #     1       :  max(cpu_time)    wall_clock(cpu1)
  | Time for this iteration                    :        0.020 s           0.021 s
  | Charge density update                      :        0.004 s           0.004 s
  | Density mixing                             :        0.000 s           0.001 s
  | Hartree multipole update                   :        0.001 s           0.000 s
  | Hartree multipole summation                :        0.006 s           0.006 s
  | Integration                                :        0.008 s           0.008 s
  | Solution of K.-S. eqns.                    :        0.001 s           0.001 s
  | Total energy evaluation                    :        0.000 s           0.001 s

  Partial memory accounting:
  | Current value for overall tracked memory usage:
  |   Minimum:        0.007 MB (on task 3)
  |   Maximum:        0.012 MB (on task 0)
  |   Average:        0.009 MB
  | Peak value for overall tracked memory usage:
  |   Minimum:        0.074 MB (on task 3 after allocating grid_partition)
  |   Maximum:        0.182 MB (on task 0 after allocating grid_partition)
  |   Average:        0.142 MB
  | Largest tracked array allocation so far:
  |   Minimum:        0.047 MB (all_coords on task 3)
  |   Maximum:        0.116 MB (all_coords on task 0)
  |   Average:        0.091 MB
  Note:  These values currently only include a subset of arrays which are explicitly tracked.
  The "true" memory usage will be greater.
------------------------------------------------------------

------------------------------------------------------------
          Begin self-consistency iteration #    2

  Date     :  20211124, Time     :  190212.678
------------------------------------------------------------
  Pulay mixing of updated and previous charge densities.
  Renormalizing the density to the exact electron count on the 3D integration grid.
  | Formal number of electrons (from input files) :      10.0000000000
  | Integrated number of electrons on 3D grid     :      10.0000000000
  | Charge integration error                      :      -0.0000000000
  | Normalization factor for density and gradient :       1.0000000000

  Evaluating partitioned Hartree potential by multipole expansion.
  | Original multipole sum: apparent total charge =  -0.178457E-13
  | Sum of charges compensated after spline to logarithmic grids =   0.931733E-04
  | Analytical far-field extrapolation by fixed multipoles:
  | Hartree multipole sum: apparent total charge =  -0.178211E-13
  Summing up the Hartree potential.
  Time summed over all CPUs for potential: real work        0.032 s, elapsed        0.037 s
  | RMS charge density error from multipole expansion :   0.257940E-02

  Integrating Hamiltonian matrix: batch-based integration.
  Time summed over all CPUs for integration: real work        0.022 s, elapsed        0.025 s

  Updating Kohn-Sham eigenvalues and eigenvectors using ELSI and the ELPA eigensolver.
  Starting ELPA eigensolver
  Finished transformation to standard eigenproblem
  | Time :     0.000 s
  Finished solving standard eigenproblem
  | Time :     0.001 s
  Finished back-transformation of eigenvectors
  | Time :     0.000 s

  Obtaining occupation numbers and chemical potential using ELSI.
  | Chemical potential (Fermi level):    -1.15648462 eV
  Highest occupied state (VBM) at     -8.38998692 eV
  | Occupation number:      2.00000000

  Lowest unoccupied state (CBM) at    -0.54707547 eV
  | Occupation number:      0.00000000

  Overall HOMO-LUMO gap:      7.84291145 eV.

  Checking to see if s.c.f. parameters should be adjusted.
  The system likely has a gap. Increased the default Pulay mixing parameter (charge_mix_param). Value:   0.200000 .
  Kept the default occupation width. Value:   0.010000 eV.

  Total energy components:
  | Sum of eigenvalues            :         -41.62054199 Ha       -1132.55257120 eV
  | XC energy correction          :          -8.70608211 Ha        -236.90454775 eV
  | XC potential correction       :          11.46788392 Ha         312.05699884 eV
  | Free-atom electrostatic energy:         -35.52816823 Ha        -966.77064642 eV
  | Hartree energy correction     :          -1.60785182 Ha         -43.75187408 eV
  | Entropy correction            :           0.00000000 Ha           0.00000000 eV
  | ---------------------------
  | Total energy                  :         -75.99476023 Ha       -2067.92264061 eV
  | Total energy, T -> 0          :         -75.99476023 Ha       -2067.92264061 eV  <-- do not rely on this value for anything but (periodic) metals
  | Electronic free energy        :         -75.99476023 Ha       -2067.92264061 eV

  Derived energy quantities:
  | Kinetic energy                :          76.10740108 Ha        2070.98775407 eV
  | Electrostatic energy          :        -143.39607920 Ha       -3902.00584693 eV
  | Energy correction for multipole
  | error in Hartree potential    :           0.00052340 Ha           0.01424251 eV
  | Sum of eigenvalues per atom                           :        -377.51752373 eV
  | Total energy (T->0) per atom                          :        -689.30754687 eV  <-- do not rely on this value for anything but (periodic) metals
  | Electronic free energy per atom                       :        -689.30754687 eV
  Evaluating new KS density.
  Integration grid: deviation in total charge (<rho> - N_e) =  -8.881784E-15

  Self-consistency convergence accuracy:
  | Change of charge density      :  0.2794E+00
  | Change of sum of eigenvalues  :  0.3767E+02 eV
  | Change of total energy        :  0.1605E+01 eV


------------------------------------------------------------
  End self-consistency iteration #     2       :  max(cpu_time)    wall_clock(cpu1)
  | Time for this iteration                    :        0.023 s           0.023 s
  | Charge density update                      :        0.004 s           0.004 s
  | Density mixing                             :        0.000 s           0.001 s
  | Hartree multipole update                   :        0.001 s           0.001 s
  | Hartree multipole summation                :        0.010 s           0.009 s
  | Integration                                :        0.006 s           0.007 s
  | Solution of K.-S. eqns.                    :        0.001 s           0.001 s
  | Total energy evaluation                    :        0.000 s           0.000 s

  Partial memory accounting:
  | Current value for overall tracked memory usage:
  |   Minimum:        0.008 MB (on task 3)
  |   Maximum:        0.012 MB (on task 0)
  |   Average:        0.010 MB
  | Peak value for overall tracked memory usage:
  |   Minimum:        0.074 MB (on task 3 after allocating grid_partition)
  |   Maximum:        0.182 MB (on task 0 after allocating grid_partition)
  |   Average:        0.142 MB
  | Largest tracked array allocation so far:
  |   Minimum:        0.047 MB (all_coords on task 3)
  |   Maximum:        0.116 MB (all_coords on task 0)
  |   Average:        0.091 MB
  Note:  These values currently only include a subset of arrays which are explicitly tracked.
  The "true" memory usage will be greater.
------------------------------------------------------------

------------------------------------------------------------
          Begin self-consistency iteration #    3

  Date     :  20211124, Time     :  190212.702
------------------------------------------------------------
  Pulay mixing of updated and previous charge densities.
  Renormalizing the density to the exact electron count on the 3D integration grid.
  | Formal number of electrons (from input files) :      10.0000000000
  | Integrated number of electrons on 3D grid     :      10.0000000000
  | Charge integration error                      :      -0.0000000000
  | Normalization factor for density and gradient :       1.0000000000

  Evaluating partitioned Hartree potential by multipole expansion.
  | Original multipole sum: apparent total charge =  -0.331455E-13
  | Sum of charges compensated after spline to logarithmic grids =   0.625848E-04
  | Analytical far-field extrapolation by fixed multipoles:
  | Hartree multipole sum: apparent total charge =  -0.332807E-13
  Summing up the Hartree potential.
  Time summed over all CPUs for potential: real work        0.021 s, elapsed        0.030 s
  | RMS charge density error from multipole expansion :   0.359042E-02

  Integrating Hamiltonian matrix: batch-based integration.
  Time summed over all CPUs for integration: real work        0.032 s, elapsed        0.036 s

  Updating Kohn-Sham eigenvalues and eigenvectors using ELSI and the ELPA eigensolver.
  Starting ELPA eigensolver
  Finished transformation to standard eigenproblem
  | Time :     0.000 s
  Finished solving standard eigenproblem
  | Time :     0.000 s
  Finished back-transformation of eigenvectors
  | Time :     0.000 s

  Obtaining occupation numbers and chemical potential using ELSI.
  | Chemical potential (Fermi level):    -1.55765091 eV
  Highest occupied state (VBM) at     -9.87180841 eV
  | Occupation number:      2.00000000

  Lowest unoccupied state (CBM) at    -0.82391222 eV
  | Occupation number:      0.00000000

  Overall HOMO-LUMO gap:      9.04789619 eV.

  Total energy components:
  | Sum of eigenvalues            :         -42.34549357 Ha       -1152.27950739 eV
  | XC energy correction          :          -8.61706696 Ha        -234.48232221 eV
  | XC potential correction       :          11.35013549 Ha         308.85290097 eV
  | Free-atom electrostatic energy:         -35.52816823 Ha        -966.77064642 eV
  | Hartree energy correction     :          -0.87247313 Ha         -23.74120171 eV
  | Entropy correction            :           0.00000000 Ha           0.00000000 eV
  | ---------------------------
  | Total energy                  :         -76.01306640 Ha       -2068.42077676 eV
  | Total energy, T -> 0          :         -76.01306640 Ha       -2068.42077676 eV  <-- do not rely on this value for anything but (periodic) metals
  | Electronic free energy        :         -76.01306640 Ha       -2068.42077676 eV

  Derived energy quantities:
  | Kinetic energy                :          75.33738610 Ha        2050.03458040 eV
  | Electrostatic energy          :        -142.73338554 Ha       -3883.97303494 eV
  | Energy correction for multipole
  | error in Hartree potential    :          -0.00175157 Ha          -0.04766265 eV
  | Sum of eigenvalues per atom                           :        -384.09316913 eV
  | Total energy (T->0) per atom                          :        -689.47359225 eV  <-- do not rely on this value for anything but (periodic) metals
  | Electronic free energy per atom                       :        -689.47359225 eV
  Evaluating new KS density.
  Integration grid: deviation in total charge (<rho> - N_e) =   1.243450E-14

  Self-consistency convergence accuracy:
  | Change of charge density      :  0.1187E+00
  | Change of sum of eigenvalues  : -0.1973E+02 eV
  | Change of total energy        : -0.4981E+00 eV


------------------------------------------------------------
  End self-consistency iteration #     3       :  max(cpu_time)    wall_clock(cpu1)
  | Time for this iteration                    :        0.025 s           0.024 s
  | Charge density update                      :        0.004 s           0.003 s
  | Density mixing                             :        0.001 s           0.000 s
  | Hartree multipole update                   :        0.002 s           0.002 s
  | Hartree multipole summation                :        0.008 s           0.008 s
  | Integration                                :        0.009 s           0.010 s
  | Solution of K.-S. eqns.                    :        0.001 s           0.000 s
  | Total energy evaluation                    :        0.000 s           0.000 s

  Partial memory accounting:
  | Current value for overall tracked memory usage:
  |   Minimum:        0.008 MB (on task 3)
  |   Maximum:        0.013 MB (on task 0)
  |   Average:        0.010 MB
  | Peak value for overall tracked memory usage:
  |   Minimum:        0.074 MB (on task 3 after allocating grid_partition)
  |   Maximum:        0.182 MB (on task 0 after allocating grid_partition)
  |   Average:        0.142 MB
  | Largest tracked array allocation so far:
  |   Minimum:        0.047 MB (all_coords on task 3)
  |   Maximum:        0.116 MB (all_coords on task 0)
  |   Average:        0.091 MB
  Note:  These values currently only include a subset of arrays which are explicitly tracked.
  The "true" memory usage will be greater.
------------------------------------------------------------

------------------------------------------------------------
          Begin self-consistency iteration #    4

  Date     :  20211124, Time     :  190212.726
------------------------------------------------------------
  Pulay mixing of updated and previous charge densities.
  Renormalizing the density to the exact electron count on the 3D integration grid.
  | Formal number of electrons (from input files) :      10.0000000000
  | Integrated number of electrons on 3D grid     :      10.0000000000
  | Charge integration error                      :      -0.0000000000
  | Normalization factor for density and gradient :       1.0000000000

  Evaluating partitioned Hartree potential by multipole expansion.
  | Original multipole sum: apparent total charge =  -0.195060E-13
  | Sum of charges compensated after spline to logarithmic grids =   0.125332E-03
  | Analytical far-field extrapolation by fixed multipoles:
  | Hartree multipole sum: apparent total charge =  -0.193830E-13
  Summing up the Hartree potential.
  Time summed over all CPUs for potential: real work        0.030 s, elapsed        0.040 s
  | RMS charge density error from multipole expansion :   0.600568E-02

  Integrating Hamiltonian matrix: batch-based integration.
  Time summed over all CPUs for integration: real work        0.031 s, elapsed        0.039 s

  Updating Kohn-Sham eigenvalues and eigenvectors using ELSI and the ELPA eigensolver.
  Starting ELPA eigensolver
  Finished transformation to standard eigenproblem
  | Time :     0.000 s
  Finished solving standard eigenproblem
  | Time :     0.001 s
  Finished back-transformation of eigenvectors
  | Time :     0.000 s

  Obtaining occupation numbers and chemical potential using ELSI.
  | Chemical potential (Fermi level):    -0.61772288 eV
  Highest occupied state (VBM) at     -7.78860879 eV
  | Occupation number:      2.00000000

  Lowest unoccupied state (CBM) at    -0.15435347 eV
  | Occupation number:      0.00000000

  Overall HOMO-LUMO gap:      7.63425532 eV.

  Total energy components:
  | Sum of eigenvalues            :         -41.53054768 Ha       -1130.10370134 eV
  | XC energy correction          :          -8.71725425 Ha        -237.20855705 eV
  | XC potential correction       :          11.48207277 Ha         312.44309695 eV
  | Free-atom electrostatic energy:         -35.52816823 Ha        -966.77064642 eV
  | Hartree energy correction     :          -1.69638860 Ha         -46.16108248 eV
  | Entropy correction            :           0.00000000 Ha           0.00000000 eV
  | ---------------------------
  | Total energy                  :         -75.99028599 Ha       -2067.80089034 eV
  | Total energy, T -> 0          :         -75.99028599 Ha       -2067.80089034 eV  <-- do not rely on this value for anything but (periodic) metals
  | Electronic free energy        :         -75.99028599 Ha       -2067.80089034 eV

  Derived energy quantities:
  | Kinetic energy                :          75.64293302 Ha        2058.34893501 eV
  | Electrostatic energy          :        -142.91596476 Ha       -3888.94126830 eV
  | Energy correction for multipole
  | error in Hartree potential    :          -0.00286460 Ha          -0.07794965 eV
  | Sum of eigenvalues per atom                           :        -376.70123378 eV
  | Total energy (T->0) per atom                          :        -689.26696345 eV  <-- do not rely on this value for anything but (periodic) metals
  | Electronic free energy per atom                       :        -689.26696345 eV
  Evaluating new KS density.
  Integration grid: deviation in total charge (<rho> - N_e) =  -5.329071E-15

  Self-consistency convergence accuracy:
  | Change of charge density      :  0.1762E+00
  | Change of sum of eigenvalues  :  0.2218E+02 eV
  | Change of total energy        :  0.6199E+00 eV


------------------------------------------------------------
  End self-consistency iteration #     4       :  max(cpu_time)    wall_clock(cpu1)
  | Time for this iteration                    :        0.030 s           0.030 s
  | Charge density update                      :        0.005 s           0.005 s
  | Density mixing                             :        0.000 s           0.001 s
  | Hartree multipole update                   :        0.001 s           0.001 s
  | Hartree multipole summation                :        0.011 s           0.011 s
  | Integration                                :        0.010 s           0.010 s
  | Solution of K.-S. eqns.                    :        0.001 s           0.001 s
  | Total energy evaluation                    :        0.000 s           0.000 s

  Partial memory accounting:
  | Current value for overall tracked memory usage:
  |   Minimum:        0.008 MB (on task 3)
  |   Maximum:        0.013 MB (on task 0)
  |   Average:        0.010 MB
  | Peak value for overall tracked memory usage:
  |   Minimum:        0.074 MB (on task 3 after allocating grid_partition)
  |   Maximum:        0.182 MB (on task 0 after allocating grid_partition)
  |   Average:        0.142 MB
  | Largest tracked array allocation so far:
  |   Minimum:        0.047 MB (all_coords on task 3)
  |   Maximum:        0.116 MB (all_coords on task 0)
  |   Average:        0.091 MB
  Note:  These values currently only include a subset of arrays which are explicitly tracked.
  The "true" memory usage will be greater.
------------------------------------------------------------

------------------------------------------------------------
          Begin self-consistency iteration #    5

  Date     :  20211124, Time     :  190212.756
------------------------------------------------------------
  Pulay mixing of updated and previous charge densities.
  Renormalizing the density to the exact electron count on the 3D integration grid.
  | Formal number of electrons (from input files) :      10.0000000000
  | Integrated number of electrons on 3D grid     :      10.0000000000
  | Charge integration error                      :       0.0000000000
  | Normalization factor for density and gradient :       1.0000000000

  Evaluating partitioned Hartree potential by multipole expansion.
  | Original multipole sum: apparent total charge =   0.108230E-14
  | Sum of charges compensated after spline to logarithmic grids =   0.126567E-03
  | Analytical far-field extrapolation by fixed multipoles:
  | Hartree multipole sum: apparent total charge =   0.179563E-14
  Summing up the Hartree potential.
  Time summed over all CPUs for potential: real work        0.018 s, elapsed        0.022 s
  | RMS charge density error from multipole expansion :   0.601245E-02

  Integrating Hamiltonian matrix: batch-based integration.
  Time summed over all CPUs for integration: real work        0.029 s, elapsed        0.033 s

  Updating Kohn-Sham eigenvalues and eigenvectors using ELSI and the ELPA eigensolver.
  Starting ELPA eigensolver
  Finished transformation to standard eigenproblem
  | Time :     0.000 s
  Finished solving standard eigenproblem
  | Time :     0.001 s
  Finished back-transformation of eigenvectors
  | Time :     0.000 s

  Obtaining occupation numbers and chemical potential using ELSI.
  | Chemical potential (Fermi level):    -0.61044883 eV
  Highest occupied state (VBM) at     -7.77542124 eV
  | Occupation number:      2.00000000

  Lowest unoccupied state (CBM) at    -0.14899516 eV
  | Occupation number:      0.00000000

  Overall HOMO-LUMO gap:      7.62642608 eV.

  Total energy components:
  | Sum of eigenvalues            :         -41.52533704 Ha       -1129.96191281 eV
  | XC energy correction          :          -8.71791750 Ha        -237.22660504 eV
  | XC potential correction       :          11.48294556 Ha         312.46684687 eV
  | Free-atom electrostatic energy:         -35.52816823 Ha        -966.77064642 eV
  | Hartree energy correction     :          -1.70176258 Ha         -46.30731602 eV
  | Entropy correction            :           0.00000000 Ha           0.00000000 eV
  | ---------------------------
  | Total energy                  :         -75.99023980 Ha       -2067.79963343 eV
  | Total energy, T -> 0          :         -75.99023980 Ha       -2067.79963343 eV  <-- do not rely on this value for anything but (periodic) metals
  | Electronic free energy        :         -75.99023980 Ha       -2067.79963343 eV

  Derived energy quantities:
  | Kinetic energy                :          75.64461224 Ha        2058.39462906 eV
  | Electrostatic energy          :        -142.91693454 Ha       -3888.96765744 eV
  | Energy correction for multipole
  | error in Hartree potential    :          -0.00288348 Ha          -0.07846337 eV
  | Sum of eigenvalues per atom                           :        -376.65397094 eV
  | Total energy (T->0) per atom                          :        -689.26654448 eV  <-- do not rely on this value for anything but (periodic) metals
  | Electronic free energy per atom                       :        -689.26654448 eV
  Evaluating new KS density.
  Integration grid: deviation in total charge (<rho> - N_e) =   1.421085E-14

  Self-consistency convergence accuracy:
  | Change of charge density      :  0.3462E-01
  | Change of sum of eigenvalues  :  0.1418E+00 eV
  | Change of total energy        :  0.1257E-02 eV


------------------------------------------------------------
  End self-consistency iteration #     5       :  max(cpu_time)    wall_clock(cpu1)
  | Time for this iteration                    :        0.022 s           0.022 s
  | Charge density update                      :        0.004 s           0.004 s
  | Density mixing                             :        0.001 s           0.001 s
  | Hartree multipole update                   :        0.001 s           0.001 s
  | Hartree multipole summation                :        0.006 s           0.006 s
  | Integration                                :        0.009 s           0.009 s
  | Solution of K.-S. eqns.                    :        0.001 s           0.001 s
  | Total energy evaluation                    :        0.000 s           0.000 s

  Partial memory accounting:
  | Current value for overall tracked memory usage:
  |   Minimum:        0.008 MB (on task 3)
  |   Maximum:        0.013 MB (on task 0)
  |   Average:        0.010 MB
  | Peak value for overall tracked memory usage:
  |   Minimum:        0.074 MB (on task 3 after allocating grid_partition)
  |   Maximum:        0.182 MB (on task 0 after allocating grid_partition)
  |   Average:        0.142 MB
  | Largest tracked array allocation so far:
  |   Minimum:        0.047 MB (all_coords on task 3)
  |   Maximum:        0.116 MB (all_coords on task 0)
  |   Average:        0.091 MB
  Note:  These values currently only include a subset of arrays which are explicitly tracked.
  The "true" memory usage will be greater.
------------------------------------------------------------

------------------------------------------------------------
          Begin self-consistency iteration #    6

  Date     :  20211124, Time     :  190212.778
------------------------------------------------------------
  Pulay mixing of updated and previous charge densities.
  Renormalizing the density to the exact electron count on the 3D integration grid.
  | Formal number of electrons (from input files) :      10.0000000000
  | Integrated number of electrons on 3D grid     :      10.0000000000
  | Charge integration error                      :       0.0000000000
  | Normalization factor for density and gradient :       1.0000000000

  Evaluating partitioned Hartree potential by multipole expansion.
  | Original multipole sum: apparent total charge =  -0.142175E-13
  | Sum of charges compensated after spline to logarithmic grids =   0.161358E-03
  | Analytical far-field extrapolation by fixed multipoles:
  | Hartree multipole sum: apparent total charge =  -0.131598E-13
  Summing up the Hartree potential.
  Time summed over all CPUs for potential: real work        0.031 s, elapsed        0.035 s
  | RMS charge density error from multipole expansion :   0.627317E-02

  Integrating Hamiltonian matrix: batch-based integration.
  Time summed over all CPUs for integration: real work        0.021 s, elapsed        0.023 s

  Updating Kohn-Sham eigenvalues and eigenvectors using ELSI and the ELPA eigensolver.
  Starting ELPA eigensolver
  Finished transformation to standard eigenproblem
  | Time :     0.000 s
  Finished solving standard eigenproblem
  | Time :     0.001 s
  Finished back-transformation of eigenvectors
  | Time :     0.000 s

  Obtaining occupation numbers and chemical potential using ELSI.
  | Chemical potential (Fermi level):    -0.39729395 eV
  Highest occupied state (VBM) at     -7.39359030 eV
  | Occupation number:      2.00000000

  Lowest unoccupied state (CBM) at     0.01185419 eV
  | Occupation number:      0.00000000

  Overall HOMO-LUMO gap:      7.40544449 eV.

  Total energy components:
  | Sum of eigenvalues            :         -41.37606161 Ha       -1125.89992148 eV
  | XC energy correction          :          -8.73710178 Ha        -237.74863586 eV
  | XC potential correction       :          11.50818477 Ha         313.15364070 eV
  | Free-atom electrostatic energy:         -35.52816823 Ha        -966.77064642 eV
  | Hartree energy correction     :          -1.85624845 Ha         -50.51109026 eV
  | Entropy correction            :           0.00000000 Ha           0.00000000 eV
  | ---------------------------
  | Total energy                  :         -75.98939530 Ha       -2067.77665332 eV
  | Total energy, T -> 0          :         -75.98939530 Ha       -2067.77665332 eV  <-- do not rely on this value for anything but (periodic) metals
  | Electronic free energy        :         -75.98939530 Ha       -2067.77665332 eV

  Derived energy quantities:
  | Kinetic energy                :          75.68645685 Ha        2059.53327868 eV
  | Electrostatic energy          :        -142.93875037 Ha       -3889.56129613 eV
  | Energy correction for multipole
  | error in Hartree potential    :          -0.00344835 Ha          -0.09383426 eV
  | Sum of eigenvalues per atom                           :        -375.29997383 eV
  | Total energy (T->0) per atom                          :        -689.25888444 eV  <-- do not rely on this value for anything but (periodic) metals
  | Electronic free energy per atom                       :        -689.25888444 eV
  Evaluating new KS density.
  Integration grid: deviation in total charge (<rho> - N_e) =   3.552714E-15

  Self-consistency convergence accuracy:
  | Change of charge density      :  0.3379E-01
  | Change of sum of eigenvalues  :  0.4062E+01 eV
  | Change of total energy        :  0.2298E-01 eV


------------------------------------------------------------
  End self-consistency iteration #     6       :  max(cpu_time)    wall_clock(cpu1)
  | Time for this iteration                    :        0.022 s           0.022 s
  | Charge density update                      :        0.004 s           0.004 s
  | Density mixing                             :        0.001 s           0.001 s
  | Hartree multipole update                   :        0.001 s           0.001 s
  | Hartree multipole summation                :        0.009 s           0.009 s
  | Integration                                :        0.006 s           0.006 s
  | Solution of K.-S. eqns.                    :        0.001 s           0.001 s
  | Total energy evaluation                    :        0.000 s           0.000 s

  Partial memory accounting:
  | Current value for overall tracked memory usage:
  |   Minimum:        0.008 MB (on task 3)
  |   Maximum:        0.013 MB (on task 0)
  |   Average:        0.010 MB
  | Peak value for overall tracked memory usage:
  |   Minimum:        0.074 MB (on task 3 after allocating grid_partition)
  |   Maximum:        0.182 MB (on task 0 after allocating grid_partition)
  |   Average:        0.142 MB
  | Largest tracked array allocation so far:
  |   Minimum:        0.047 MB (all_coords on task 3)
  |   Maximum:        0.116 MB (all_coords on task 0)
  |   Average:        0.091 MB
  Note:  These values currently only include a subset of arrays which are explicitly tracked.
  The "true" memory usage will be greater.
------------------------------------------------------------

------------------------------------------------------------
          Begin self-consistency iteration #    7

  Date     :  20211124, Time     :  190212.801
------------------------------------------------------------
  Pulay mixing of updated and previous charge densities.
  Renormalizing the density to the exact electron count on the 3D integration grid.
  | Formal number of electrons (from input files) :      10.0000000000
  | Integrated number of electrons on 3D grid     :      10.0000000000
  | Charge integration error                      :       0.0000000000
  | Normalization factor for density and gradient :       1.0000000000

  Evaluating partitioned Hartree potential by multipole expansion.
  | Original multipole sum: apparent total charge =   0.713334E-15
  | Sum of charges compensated after spline to logarithmic grids =   0.177128E-03
  | Analytical far-field extrapolation by fixed multipoles:
  | Hartree multipole sum: apparent total charge =   0.737932E-16
  Summing up the Hartree potential.
  Time summed over all CPUs for potential: real work        0.023 s, elapsed        0.032 s
  | RMS charge density error from multipole expansion :   0.637788E-02

  Integrating Hamiltonian matrix: batch-based integration.
  Time summed over all CPUs for integration: real work        0.032 s, elapsed        0.036 s

  Updating Kohn-Sham eigenvalues and eigenvectors using ELSI and the ELPA eigensolver.
  Starting ELPA eigensolver
  Finished transformation to standard eigenproblem
  | Time :     0.000 s
  Finished solving standard eigenproblem
  | Time :     0.000 s
  Finished back-transformation of eigenvectors
  | Time :     0.000 s

  Obtaining occupation numbers and chemical potential using ELSI.
  | Chemical potential (Fermi level):    -0.30976767 eV
  Highest occupied state (VBM) at     -7.23262647 eV
  | Occupation number:      2.00000000

  Lowest unoccupied state (CBM) at     0.07991154 eV
  | Occupation number:      0.00000000

  Overall HOMO-LUMO gap:      7.31253801 eV.

  Total energy components:
  | Sum of eigenvalues            :         -41.31312297 Ha       -1124.18727410 eV
  | XC energy correction          :          -8.74520622 Ha        -237.96916888 eV
  | XC potential correction       :          11.51884680 Ha         313.44376922 eV
  | Free-atom electrostatic energy:         -35.52816823 Ha        -966.77064642 eV
  | Hartree energy correction     :          -1.92166204 Ha         -52.29108470 eV
  | Entropy correction            :           0.00000000 Ha           0.00000000 eV
  | ---------------------------
  | Total energy                  :         -75.98931267 Ha       -2067.77440487 eV
  | Total energy, T -> 0          :         -75.98931267 Ha       -2067.77440487 eV  <-- do not rely on this value for anything but (periodic) metals
  | Electronic free energy        :         -75.98931267 Ha       -2067.77440487 eV

  Derived energy quantities:
  | Kinetic energy                :          75.70368213 Ha        2060.00200259 eV
  | Electrostatic energy          :        -142.94778858 Ha       -3889.80723857 eV
  | Energy correction for multipole
  | error in Hartree potential    :          -0.00369688 Ha          -0.10059714 eV
  | Sum of eigenvalues per atom                           :        -374.72909137 eV
  | Total energy (T->0) per atom                          :        -689.25813496 eV  <-- do not rely on this value for anything but (periodic) metals
  | Electronic free energy per atom                       :        -689.25813496 eV
  Evaluating new KS density.
  Integration grid: deviation in total charge (<rho> - N_e) =  -3.552714E-15

  Self-consistency convergence accuracy:
  | Change of charge density      :  0.1017E-01
  | Change of sum of eigenvalues  :  0.1713E+01 eV
  | Change of total energy        :  0.2248E-02 eV


------------------------------------------------------------
  End self-consistency iteration #     7       :  max(cpu_time)    wall_clock(cpu1)
  | Time for this iteration                    :        0.025 s           0.024 s
  | Charge density update                      :        0.002 s           0.002 s
  | Density mixing                             :        0.001 s           0.001 s
  | Hartree multipole update                   :        0.002 s           0.002 s
  | Hartree multipole summation                :        0.008 s           0.008 s
  | Integration                                :        0.009 s           0.010 s
  | Solution of K.-S. eqns.                    :        0.001 s           0.001 s
  | Total energy evaluation                    :        0.000 s           0.000 s

  Partial memory accounting:
  | Current value for overall tracked memory usage:
  |   Minimum:        0.008 MB (on task 3)
  |   Maximum:        0.013 MB (on task 0)
  |   Average:        0.010 MB
  | Peak value for overall tracked memory usage:
  |   Minimum:        0.074 MB (on task 3 after allocating grid_partition)
  |   Maximum:        0.182 MB (on task 0 after allocating grid_partition)
  |   Average:        0.142 MB
  | Largest tracked array allocation so far:
  |   Minimum:        0.047 MB (all_coords on task 3)
  |   Maximum:        0.116 MB (all_coords on task 0)
  |   Average:        0.091 MB
  Note:  These values currently only include a subset of arrays which are explicitly tracked.
  The "true" memory usage will be greater.
------------------------------------------------------------

------------------------------------------------------------
          Begin self-consistency iteration #    8

  Date     :  20211124, Time     :  190212.825
------------------------------------------------------------
  Pulay mixing of updated and previous charge densities.
  Renormalizing the density to the exact electron count on the 3D integration grid.
  | Formal number of electrons (from input files) :      10.0000000000
  | Integrated number of electrons on 3D grid     :      10.0000000000
  | Charge integration error                      :       0.0000000000
  | Normalization factor for density and gradient :       1.0000000000

  Evaluating partitioned Hartree potential by multipole expansion.
  | Original multipole sum: apparent total charge =  -0.585426E-14
  | Sum of charges compensated after spline to logarithmic grids =   0.178068E-03
  | Analytical far-field extrapolation by fixed multipoles:
  | Hartree multipole sum: apparent total charge =  -0.499334E-14
  Summing up the Hartree potential.
  Time summed over all CPUs for potential: real work        0.021 s, elapsed        0.023 s
  | RMS charge density error from multipole expansion :   0.638490E-02

  Integrating Hamiltonian matrix: batch-based integration.
  Time summed over all CPUs for integration: real work        0.033 s, elapsed        0.039 s

  Updating Kohn-Sham eigenvalues and eigenvectors using ELSI and the ELPA eigensolver.
  Starting ELPA eigensolver
  Finished transformation to standard eigenproblem
  | Time :     0.000 s
  Finished solving standard eigenproblem
  | Time :     0.000 s
  Finished back-transformation of eigenvectors
  | Time :     0.000 s

  Obtaining occupation numbers and chemical potential using ELSI.
  | Chemical potential (Fermi level):    -0.30552704 eV
  Highest occupied state (VBM) at     -7.22567009 eV
  | Occupation number:      2.00000000

  Lowest unoccupied state (CBM) at     0.08332028 eV
  | Occupation number:      0.00000000

  Overall HOMO-LUMO gap:      7.30899037 eV.

  Total energy components:
  | Sum of eigenvalues            :         -41.31062689 Ha       -1124.11935220 eV
  | XC energy correction          :          -8.74553323 Ha        -237.97806740 eV
  | XC potential correction       :          11.51927616 Ha         313.45545282 eV
  | Free-atom electrostatic energy:         -35.52816823 Ha        -966.77064642 eV
  | Hartree energy correction     :          -1.92426071 Ha         -52.36179811 eV
  | Entropy correction            :           0.00000000 Ha           0.00000000 eV
  | ---------------------------
  | Total energy                  :         -75.98931290 Ha       -2067.77441131 eV
  | Total energy, T -> 0          :         -75.98931290 Ha       -2067.77441131 eV  <-- do not rely on this value for anything but (periodic) metals
  | Electronic free energy        :         -75.98931290 Ha       -2067.77441131 eV

  Derived energy quantities:
  | Kinetic energy                :          75.70366542 Ha        2060.00154783 eV
  | Electrostatic energy          :        -142.94744509 Ha       -3889.79789174 eV
  | Energy correction for multipole
  | error in Hartree potential    :          -0.00371483 Ha          -0.10108578 eV
  | Sum of eigenvalues per atom                           :        -374.70645073 eV
  | Total energy (T->0) per atom                          :        -689.25813710 eV  <-- do not rely on this value for anything but (periodic) metals
  | Electronic free energy per atom                       :        -689.25813710 eV
  Evaluating new KS density.
  Integration grid: deviation in total charge (<rho> - N_e) =  -8.881784E-15

  Self-consistency convergence accuracy:
  | Change of charge density      :  0.1278E-03
  | Change of sum of eigenvalues  :  0.6792E-01 eV
  | Change of total energy        : -0.6444E-05 eV


[...]
  | Change of sum of eigenvalues  :  0.4793E-05 eV
  | Change of total energy        :  0.4119E-08 eV

  Electronic self-consistency reached - switching on the force computation.


------------------------------------------------------------
  End self-consistency iteration #     6       :  max(cpu_time)    wall_clock(cpu1)
  | Time for this iteration                    :        0.026 s           0.027 s
  | Charge density & force component update    :        0.006 s           0.006 s
  | Density mixing                             :        0.001 s           0.001 s
  | Hartree multipole update                   :        0.001 s           0.001 s
  | Hartree multipole summation                :        0.008 s           0.009 s
  | Hartree pot. SCF incomplete forces         :        0.008 s           0.008 s
  | Integration                                :        0.009 s           0.009 s
  | Solution of K.-S. eqns.                    :        0.001 s           0.001 s
  | Total energy evaluation                    :        0.000 s           0.000 s

  Partial memory accounting:
  | Current value for overall tracked memory usage:
  |   Minimum:        0.009 MB (on task 3)
  |   Maximum:        0.015 MB (on task 0)
  |   Average:        0.011 MB
  | Peak value for overall tracked memory usage:
  |   Minimum:        0.089 MB (on task 3 after allocating h_times_wave)
  |   Maximum:        0.189 MB (on task 0 after allocating h_times_wave)
  |   Average:        0.150 MB
  | Largest tracked array allocation so far:
  |   Minimum:        0.048 MB (gradient_basis_wave on task 3)
  |   Maximum:        0.116 MB (gradient_basis_wave on task 0)
  |   Average:        0.091 MB
  Note:  These values currently only include a subset of arrays which are explicitly tracked.
  The "true" memory usage will be greater.
------------------------------------------------------------

------------------------------------------------------------
          Begin self-consistency iteration #    7

  Date     :  20211124, Time     :  190213.721
------------------------------------------------------------
  Pulay mixing of updated and previous charge densities.
  Renormalizing the density to the exact electron count on the 3D integration grid.
  | Formal number of electrons (from input files) :      10.0000000000
  | Integrated number of electrons on 3D grid     :      10.0000000000
  | Charge integration error                      :      -0.0000000000
  | Normalization factor for density and gradient :       1.0000000000

  Evaluating partitioned Hartree potential by multipole expansion.
  | Original multipole sum: apparent total charge =  -0.327150E-14
  | Sum of charges compensated after spline to logarithmic grids =   0.176084E-03
  | Analytical far-field extrapolation by fixed multipoles:
  | Hartree multipole sum: apparent total charge =  -0.336989E-14
  Summing up the Hartree potential.
  Time summed over all CPUs for potential: real work        0.051 s, elapsed        0.057 s
  | RMS charge density error from multipole expansion :   0.629533E-02

  Integrating Hamiltonian matrix: batch-based integration.
  Time summed over all CPUs for integration: real work        0.027 s, elapsed        0.038 s => Consider using load balancing!

  Updating Kohn-Sham eigenvalues and eigenvectors using ELSI and the ELPA eigensolver.
  Starting ELPA eigensolver
  Finished transformation to standard eigenproblem
  | Time :     0.000 s
  Finished solving standard eigenproblem
  | Time :     0.001 s
  Finished back-transformation of eigenvectors
  | Time :     0.000 s

  Obtaining occupation numbers and chemical potential using ELSI.
  | Chemical potential (Fermi level):    -0.61315483 eV
  Highest occupied state (VBM) at     -7.19542820 eV
  | Occupation number:      2.00000000

  Lowest unoccupied state (CBM) at    -0.01126981 eV
  | Occupation number:      0.00000000

  Overall HOMO-LUMO gap:      7.18415839 eV.

  Total energy components:
  | Sum of eigenvalues            :         -41.28939555 Ha       -1123.54161817 eV
  | XC energy correction          :          -8.73189405 Ha        -237.60692637 eV
  | XC potential correction       :          11.50128663 Ha         312.96593260 eV
  | Free-atom electrostatic energy:         -35.59465010 Ha        -968.57970995 eV
  | Hartree energy correction     :          -1.87506774 Ha         -51.02318934 eV
  | Entropy correction            :           0.00000000 Ha           0.00000000 eV
  | ---------------------------
  | Total energy                  :         -75.98972082 Ha       -2067.78551123 eV
  | Total energy, T -> 0          :         -75.98972082 Ha       -2067.78551123 eV  <-- do not rely on this value for anything but (periodic) metals
  | Electronic free energy        :         -75.98972082 Ha       -2067.78551123 eV

  Derived energy quantities:
  | Kinetic energy                :          75.65363755 Ha        2058.64022033 eV
  | Electrostatic energy          :        -142.91146432 Ha       -3888.81880518 eV
  | Energy correction for multipole
  | error in Hartree potential    :          -0.00355123 Ha          -0.09663377 eV
  | Sum of eigenvalues per atom                           :        -374.51387272 eV
  | Total energy (T->0) per atom                          :        -689.26183708 eV  <-- do not rely on this value for anything but (periodic) metals
  | Electronic free energy per atom                       :        -689.26183708 eV
  Evaluating new KS density and force components.
  Integration grid: deviation in total charge (<rho> - N_e) =  -8.881784E-15

  atomic forces [eV/Ang]:
  -----------------------
  atom #    1
   Hellmann-Feynman              : -0.974189E+01 -0.125822E+02 -0.291457E-12
   Ionic forces                  :  0.000000E+00  0.000000E+00  0.000000E+00
   Multipole                     :  0.416878E-01  0.539900E-01 -0.577032E-15
   Hartree pot. SCF incomplete   : -0.209734E-05 -0.162879E-05  0.117710E-12
   Pulay                         :  0.970311E+01  0.125340E+02  0.730751E-11
   ----------------------------------------------------------------
   Total forces(   1)            :  0.291047E-02  0.585500E-02  0.713319E-11
  atom #    2
   Hellmann-Feynman              :  0.480010E+00  0.575870E-01 -0.119070E-13
   Ionic forces                  :  0.000000E+00  0.000000E+00  0.000000E+00
   Multipole                     :  0.126791E-01  0.265255E-01  0.892031E-16
   Hartree pot. SCF incomplete   :  0.165924E-06 -0.142784E-06  0.154737E-13
   Pulay                         : -0.490394E+00 -0.799875E-01 -0.114180E-13
   ----------------------------------------------------------------
   Total forces(   2)            :  0.229503E-02  0.412491E-02 -0.776209E-14
  atom #    3
   Hellmann-Feynman              : -0.650541E-01  0.481306E+00 -0.160342E-13
   Ionic forces                  :  0.000000E+00  0.000000E+00  0.000000E+00
   Multipole                     :  0.224997E-01  0.189929E-01 -0.321967E-15
   Hartree pot. SCF incomplete   : -0.188325E-06  0.759404E-07  0.382376E-14
   Pulay                         :  0.453458E-01 -0.494867E+00  0.121316E-13
   ----------------------------------------------------------------
   Total forces(   3)            :  0.279120E-02  0.543110E-02 -0.400812E-15


  Self-consistency convergence accuracy:
  | Change of charge density      :  0.1906E-07
  | Change of sum of eigenvalues  :  0.2478E-05 eV
  | Change of total energy        :  0.2947E-09 eV
  | Change of forces              :  0.5840E-02 eV/A

  Writing Kohn-Sham eigenvalues.

  State    Occupation    Eigenvalue [Ha]    Eigenvalue [eV]
      1       2.00000         -18.640915         -507.24511
      2       2.00000          -0.918449          -24.99226
      3       2.00000          -0.482216          -13.12175
      4       2.00000          -0.338691           -9.21626
      5       2.00000          -0.264427           -7.19543
      6       0.00000          -0.000414           -0.01127
      7       0.00000           0.095040            2.58616
      8       0.00000           0.295251            8.03419
      9       0.00000           0.328307            8.93368
     10       0.00000           0.369311           10.04947
     11       0.00000           0.578060           15.72981

  Highest occupied state (VBM) at     -7.19542820 eV
  | Occupation number:      2.00000000

  Lowest unoccupied state (CBM) at    -0.01126981 eV
  | Occupation number:      0.00000000

  Overall HOMO-LUMO gap:      7.18415839 eV.
  | Chemical Potential                          :    -0.61315483 eV

  Self-consistency cycle converged.


------------------------------------------------------------
  End self-consistency iteration #     7       :  max(cpu_time)    wall_clock(cpu1)
  | Time for this iteration                    :        0.058 s           0.058 s
  | Charge density & force component update    :        0.017 s           0.018 s
  | Density mixing                             :        0.001 s           0.000 s
  | Hartree multipole update                   :        0.001 s           0.001 s
  | Hartree multipole summation                :        0.015 s           0.015 s
  | Hartree pot. SCF incomplete forces         :        0.013 s           0.013 s
  | Integration                                :        0.010 s           0.010 s
  | Solution of K.-S. eqns.                    :        0.001 s           0.001 s
  | Total energy evaluation                    :        0.000 s           0.000 s

  Partial memory accounting:
  | Current value for overall tracked memory usage:
  |   Minimum:        0.009 MB (on task 3)
  |   Maximum:        0.015 MB (on task 0)
  |   Average:        0.011 MB
  | Peak value for overall tracked memory usage:
  |   Minimum:        0.089 MB (on task 3 after allocating h_times_wave)
  |   Maximum:        0.189 MB (on task 0 after allocating h_times_wave)
  |   Average:        0.150 MB
  | Largest tracked array allocation so far:
  |   Minimum:        0.048 MB (gradient_basis_wave on task 3)
  |   Maximum:        0.116 MB (gradient_basis_wave on task 0)
  |   Average:        0.091 MB
  Note:  These values currently only include a subset of arrays which are explicitly tracked.
  The "true" memory usage will be greater.
------------------------------------------------------------
  Removing unitary transformations (pure translations, rotations) from forces on atoms.
  Atomic forces before filtering:
  | Net force on center of mass :   0.799670E-02  0.154110E-01  0.712503E-11 eV/A
  | Net torque on center of mass:  -0.222144E-11  0.172732E-11 -0.117751E-02 eV
  Atomic forces after filtering:
  | Net force on center of mass :  -0.243915E-17 -0.627209E-17 -0.259615E-26 eV/A
  | Net torque on center of mass:  -0.961683E-28  0.102525E-26 -0.691468E-18 eV

  Energy and forces in a compact form:
  | Total energy uncorrected      :         -0.206778551123339E+04 eV
  | Total energy corrected        :         -0.206778551123339E+04 eV  <-- do not rely on this value for anything but (periodic) metals
  | Electronic free energy        :         -0.206778551123339E+04 eV
  Total atomic forces (unitary forces cleaned) [eV/Ang]:
  |    1          0.502371358893591E-03          0.518627680984070E-03          0.324518849313061E-27
  |    2         -0.108826759330217E-03         -0.408128913725760E-03         -0.194711309587837E-26
  |    3         -0.393544599563376E-03         -0.110498767258316E-03         -0.973556547939183E-27

  ------------------------------------ 
  Start decomposition of the XC Energy 
  ------------------------------------ 
  X and C from original XC functional choice 
  Hartree-Fock Energy :          0.000000000 Ha              0.000000000 eV
  X Energy            :         -8.073176864 Ha           -219.682319781 eV
  C Energy            :         -0.658717185 Ha            -17.924606593 eV
  Total XC Energy     :         -8.731894049 Ha           -237.606926374 eV
  ------------------------------------ 
  LDA X and C from self-consistent density 
  X Energy LDA        :         -8.073176864 Ha           -219.682319781 eV
  C Energy LDA        :         -0.658717185 Ha            -17.924606593 eV
  ------------------------------------ 
  End decomposition of the XC Energy 
  ------------------------------------ 

------------------------------------------------------------
  Relaxation / MD: End force evaluation.       :  max(cpu_time)    wall_clock(cpu1)
  | Time for this force evaluation             :        0.215 s           0.216 s

------------------------------------------------------------
  Geometry optimization: Attempting to predict improved coordinates.

  Removing unitary transformations (pure translations, rotations) from forces on atoms.
  Atomic forces before filtering:
  | Net force on center of mass :  -0.243915E-17 -0.627209E-17 -0.259615E-26 eV/A
  | Net torque on center of mass:  -0.961683E-28  0.102525E-26 -0.691468E-18 eV
  Atomic forces after filtering:
  | Net force on center of mass :   0.000000E+00  0.000000E+00  0.576461E-42 eV/A
  | Net torque on center of mass:  -0.384586E-43 -0.153767E-42  0.000000E+00 eV
  Net remaining forces (excluding translations, rotations) in present geometry:
  || Forces on atoms   || =   0.518628E-03 eV/A.
  Maximum force component is  0.518628E-03 eV/A.
  Present geometry is converged.

------------------------------------------------------------
  Final atomic structure:
                         x [A]             y [A]             z [A]
            atom        -0.00191785       -0.00243279       -0.00000000  O
            atom         0.97071531       -0.00756333        0.00000000  H
            atom        -0.25039746        0.93789612       -0.00000000  H
------------------------------------------------------------

------------------------------------------------------------------------------
  Final output of selected total energy values:

  The following output summarizes some interesting total energy values
  at the end of a run (AFTER all relaxation, molecular dynamics, etc.).

  | Total energy of the DFT / Hartree-Fock s.c.f. calculation      :          -2067.785511233 eV
  | Final zero-broadening corrected energy (caution - metals only) :          -2067.785511233 eV
  | For reference only, the value of 1 Hartree used in FHI-aims is :             27.211384500 eV

  Before relying on these values, please be sure to understand exactly which
  total energy value is referred to by a given number. Different objects may
  all carry the same name 'total energy'. Definitions:

  Total energy of the DFT / Hartree-Fock s.c.f. calculation:
  | Note that this energy does not include ANY quantities calculated after the
  | s.c.f. cycle, in particular not ANY RPA, MP2, etc. many-body perturbation terms.

  Final zero-broadening corrected energy:
  | For metallic systems only, a broadening of the occupation numbers at the Fermi
  | level can be extrapolated back to zero broadening by an electron-gas inspired
  | formula. For all systems that are not real metals, this value can be
  | meaningless and should be avoided.

------------------------------------------------------------------------------
  Methods described in the following list of references were used in this FHI-aims run.
  If you publish the results, please make sure to cite these reference if they apply.
  FHI-aims is an academic code, and for our developers (often, Ph.D. students
  and postdocs), scientific credit in the community is essential.
  Thank you for helping us!

  For any use of FHI-aims, please cite:

    Volker Blum, Ralf Gehrke, Felix Hanke, Paula Havu, Ville Havu,
    Xinguo Ren, Karsten Reuter, and Matthias Scheffler
    'Ab initio molecular simulations with numeric atom-centered orbitals'
    Computer Physics Communications 180, 2175-2196 (2009)
    http://dx.doi.org/10.1016/j.cpc.2009.06.022


  The ELSI infrastructure was used in your run to solve the Kohn-Sham electronic structure.
  Please check out http://elsi-interchange.org to learn more.
  If scalability is important for your project, please acknowledge ELSI by citing:

    V. W-z. Yu, F. Corsetti, A. Garcia, W. P. Huhn, M. Jacquelin, W. Jia,
    B. Lange, L. Lin, J. Lu, W. Mi, A. Seifitokaldani, A. Vazquez-Mayagoitia,
    C. Yang, H. Yang, and V. Blum
    'ELSI: A unified software interface for Kohn-Sham electronic structure solvers'
    Computer Physics Communications 222, 267-285 (2018).
    http://dx.doi.org/10.1016/j.cpc.2017.09.007


  For the real-space grid partitioning and parallelization used in this calculation, please cite:

    Ville Havu, Volker Blum, Paula Havu, and Matthias Scheffler,
    'Efficient O(N) integration for all-electron electronic structure calculation'
    'using numerically tabulated basis functions'
    Journal of Computational Physics 228, 8367-8379 (2009).
    http://dx.doi.org/10.1016/j.jcp.2009.08.008

  Of course, there are many other important community references, e.g., those cited in the
  above references. Our list is limited to references that describe implementations in the
  FHI-aims code. The reason is purely practical (length of this list) - please credit others as well.

------------------------------------------------------------
          Leaving FHI-aims.
          Date     :  20211124, Time     :  190213.784

          Computational steps:
          | Number of self-consistency cycles          :           39
          | Number of SCF (re)initializations          :            4
          | Number of relaxation steps                 :            3

          Detailed time accounting                     :  max(cpu_time)    wall_clock(cpu1)
          | Total time                                 :        1.333 s           1.334 s
          | Preparation time                           :        0.108 s           0.108 s
          | Boundary condition initalization           :        0.000 s           0.000 s
          | Grid partitioning                          :        0.032 s           0.032 s
          | Preloading free-atom quantities on grid    :        0.015 s           0.015 s
          | Free-atom superposition energy             :        0.014 s           0.014 s
          | Total time for integrations                :        0.350 s           0.350 s
          | Total time for solution of K.-S. equations :        0.049 s           0.048 s
          | Total time for EV reorthonormalization     :        0.001 s           0.001 s
          | Total time for density & force components  :        0.225 s           0.223 s
          | Total time for mixing                      :        0.023 s           0.025 s
          | Total time for Hartree multipole update    :        0.051 s           0.045 s
          | Total time for Hartree multipole sum       :        0.312 s           0.317 s
          | Total time for total energy evaluation     :        0.006 s           0.005 s
          | Total time NSC force correction            :        0.039 s           0.038 s
          | Total time for scaled ZORA corrections     :        0.000 s           0.000 s

          Partial memory accounting:
          | Residual value for overall tracked memory usage across tasks:     0.000000 MB (should be 0.000000 MB)
          | Peak values for overall tracked memory usage:
          |   Minimum:        0.089 MB (on task 3 after allocating h_times_wave)
          |   Maximum:        0.189 MB (on task 0 after allocating h_times_wave)
          |   Average:        0.150 MB
          | Largest tracked array allocation:
          |   Minimum:        0.048 MB (gradient_basis_wave on task 3)
          |   Maximum:        0.116 MB (gradient_basis_wave on task 0)
          |   Average:        0.091 MB
          Note:  These values currently only include a subset of arrays which are explicitly tracked.
          The "true" memory usage will be greater.

          Have a nice day.
------------------------------------------------------------
