------------------------------------------------------------
          Invoking FHI-aims ...

          When using FHI-aims, please cite the following reference:

            Volker Blum, Ralf Gehrke, Felix Hanke, Paula Havu,
            Ville Havu, Xinguo Ren, Karsten Reuter, and Matthias Scheffler,
            'Ab Initio Molecular Simulations with Numeric Atom-Centered Orbitals',
            Computer Physics Communications 180, 2175-2196 (2009)

          In addition, many other developments in FHI-aims are likely important for
          your particular application. A partial list of references is given at the end of
          this file. Thank you for giving credit to the authors of these developments.

          For any questions about FHI-aims, please visit our slack channel at

            https://fhi-aims.slack.com

          and our main development and support site at

            https://aims-git.rz-berlin.mpg.de .

          The latter site, in particular, has a wiki to collect information, as well
          as an issue tracker to log discussions, suggest improvements, and report issues
          or bugs. https://aims-git.rz-berlin.mpg.de is also the main development site
          of the project and all new and updated code versions can be obtained there.
          Please send an email to aims-coordinators@fhi-berlin.mpg.de and we will add
          you to these sites. They are for you and everyone is welcome there.

------------------------------------------------------------



  Date     :  20211125, Time     :  085915.771
  Time zero on CPU 1             :   0.441880000000000E-01  s.
  Internal wall clock time zero  :           407062755.771  s.

  FHI-aims created a unique identifier for this run for later identification
  aims_uuid : 76C46288-38CB-463B-A2C4-E14480B31015

  Build configuration of the current instance of FHI-aims
  -------------------------------------------------------
  FHI-aims version      : 210513
  Commit number         : cae7accea
  CMake host system     : Linux-4.15.0-43-generic
  CMake version         : 3.10.2
  Fortran compiler      : /home/purcell/intel/oneapi/mpi/2021.1-beta10/bin/mpiifort (Intel) version 20.2.1.20200827
  Fortran compiler flags: -O3 -ip -fp-model precise
  C compiler            : /home/purcell/intel/oneapi/compiler/2021.1-beta10/linux/bin/intel64/icc (Intel) version 20.2.1.20200827
  C compiler flags      : -O3 -ip -fp-model precise -std=gnu99
  C++ compiler          : /usr/bin/c++ (GNU) version 7.5.0
  C++ compiler flags    :
  ELPA2 kernel          : AVX2
  Using MPI
  Using ScaLAPACK
  Using LibXC
  Using i-PI
  Using RLSY
  Linking against: /home/purcell/intel/oneapi/mkl/2021.1-beta10/lib/intel64/libmkl_scalapack_lp64.so
                   /home/purcell/intel/oneapi/mkl/2021.1-beta10/lib/intel64/libmkl_blacs_intelmpi_lp64.so
                   /home/purcell/intel/oneapi/mkl/2021.1-beta10/lib/intel64/libmkl_intel_lp64.so
                   /home/purcell/intel/oneapi/mkl/2021.1-beta10/lib/intel64/libmkl_sequential.so
                   /home/purcell/intel/oneapi/mkl/2021.1-beta10/lib/intel64/libmkl_core.so

  Using        4 parallel tasks.
  Task        0 on host theobook reporting.
  Task        1 on host theobook reporting.
  Task        2 on host theobook reporting.
  Task        3 on host theobook reporting.

  Performing system and environment tests:
  *** Environment variable OMP_NUM_THREADS is set to 
  2
  *** For performance reasons you might want to set it to 1
  | Checking for ScaLAPACK...
  | Testing pdtran()...
  | All pdtran() tests passed.

  Obtaining array dimensions for all initial allocations:
  
  -----------------------------------------------------------------------
  Parsing control.in (first pass over file, find array dimensions only).
  The contents of control.in will be repeated verbatim below
  unless switched off by setting 'verbatim_writeout .false.' .
  in the first line of control.in .
  -----------------------------------------------------------------------
  
  #===============================================================================
  # FHI-aims file: ./control.in
  # Created using the Atomic Simulation Environment (ASE)
  # Fri Nov  5 10:46:34 2021
  #===============================================================================
  xc                                 pw-lda
  k_grid                             4 4 4
  sc_accuracy_rho                    1e-06
  relativistic                       atomic_zora scalar
  output_level                       MD_light
  compute_forces                     .true.
  relax_geometry                     trm 0.001
  relax_unit_cell                    full
  sc_init_iter                       2
  #===============================================================================
  
  ################################################################################
  #
  #  FHI-aims code project
  #  VB, Fritz-Haber Institut, 2009
  #
  #  Suggested "light" defaults for Si atom (to be pasted into control.in file)
  #  Be sure to double-check any results obtained with these settings for post-processing,
  #  e.g., with the "tight" defaults and larger basis sets.
  #
  #  2020/09/08 Added f function to "light" after reinspection of Delta test outcomes.
  #             This was done for all of Al-Cl and is a tricky decision since it makes
  #             "light" calculations measurably more expensive for these elements.
  #             Nevertheless, outcomes for P, S, Cl (and to some extent, Si) appear
  #             to justify this choice.
  #
  ################################################################################
    species        Si
  #     global species definitions
      nucleus             14
      mass                28.0855
  #
      l_hartree           4
  #
      cut_pot             3.5          1.5  1.0
      basis_dep_cutoff    1e-4
  #
      radial_base         42 5.0
      radial_multiplier   1
      angular_grids       specified
        division   0.5866   50
        division   0.9616  110
        division   1.2249  194
        division   1.3795  302
  #      division   1.4810  434
  #      division   1.5529  590
  #      division   1.6284  770
  #      division   1.7077  974
  #      division   2.4068 1202
  #      outer_grid   974
        outer_grid 302
  ################################################################################
  #
  #  Definition of "minimal" basis
  #
  ################################################################################
  #     valence basis states
      valence      3  s   2.
      valence      3  p   2.
  #     ion occupancy
      ion_occ      3  s   1.
      ion_occ      3  p   1.
  ################################################################################
  #
  #  Suggested additional basis functions. For production calculations,
  #  uncomment them one after another (the most important basis functions are
  #  listed first).
  #
  #  Constructed for dimers: 1.75 A, 2.0 A, 2.25 A, 2.75 A, 3.75 A
  #
  ################################################################################
  #  "First tier" - improvements: -571.96 meV to -37.03 meV
       hydro 3 d 4.2
       hydro 2 p 1.4
       hydro 4 f 6.2
       ionic 3 s auto
  #  "Second tier" - improvements: -16.76 meV to -3.03 meV
  #     hydro 3 d 9
  #     hydro 5 g 9.4
  #     hydro 4 p 4
  #     hydro 1 s 0.65
  #  "Third tier" - improvements: -3.89 meV to -0.60 meV
  #     ionic 3 d auto
  #     hydro 3 s 2.6
  #     hydro 4 f 8.4
  #     hydro 3 d 3.4
  #     hydro 3 p 7.8
  #  "Fourth tier" - improvements: -0.33 meV to -0.11 meV
  #     hydro 2 p 1.6
  #     hydro 5 g 10.8
  #     hydro 5 f 11.2
  #     hydro 3 d 1
  #     hydro 4 s 4.5
  #  Further basis functions that fell out of the optimization - noise
  #  level... < -0.08 meV
  #     hydro 4 d 6.6
  #     hydro 5 g 16.4
  #     hydro 4 d 9
  
  -----------------------------------------------------------------------
  Completed first pass over input file control.in .
  -----------------------------------------------------------------------
  
  
  -----------------------------------------------------------------------
  Parsing geometry.in (first pass over file, find array dimensions only).
  The contents of geometry.in will be repeated verbatim below
  unless switched off by setting 'verbatim_writeout .false.' .
  in the first line of geometry.in .
  -----------------------------------------------------------------------
  
  #=======================================================
  # FHI-aims file: ./geometry.in
  # Created using the Atomic Simulation Environment (ASE)
  # Fri Nov  5 10:46:34 2021
  #=======================================================
  lattice_vector 0.0000000000000000 2.9029999999999998 2.9029999999999998
  lattice_vector 2.9029999999999998 0.0000000000000000 2.9029999999999998
  lattice_vector 2.9029999999999998 2.9029999999999998 0.0000000000000000
  atom_frac 0.0000000000000000 0.0000000000000000 -0.0000000000000000 Si
  constrain_relaxation .true.
  atom_frac 0.2500000000000000 0.2500000000000000 0.2500000000000000 Si
  constrain_relaxation .true.
  
  
  -----------------------------------------------------------------------
  Completed first pass over input file geometry.in .
  -----------------------------------------------------------------------
  

  Basic array size parameters:
  | Number of species                 :        1
  | Number of atoms                   :        2
  | Number of lattice vectors         :        3
  | Max. basis fn. angular momentum   :        3
  | Max. atomic/ionic basis occupied n:        3
  | Max. number of basis fn. types    :        3
  | Max. radial fns per species/type  :        5
  | Max. logarithmic grid size        :     1346
  | Max. radial integration grid size :       42
  | Max. angular integration grid size:      302
  | Max. angular grid division number :        8
  | Radial grid for Hartree potential :     1346
  | Number of spin channels           :        1

------------------------------------------------------------
          Reading file control.in.
------------------------------------------------------------
  XC: Using Perdew-Wang parametrisation of Ceperley-Alder LDA.
  Found k-point grid:         4         4         4
  Convergence accuracy of self-consistent charge density:  0.1000E-05
  Scalar relativistic treatment of kinetic energy: on-site free-atom approximation to ZORA.
  Requested output level: MD_light
  Forces will be computed.
  Geometry relaxation: Modified BFGS - TRM (trust radius method) for lattice optimization.
  Convergence accuracy for geometry relaxation: Maximum force <   0.100000E-02 eV/A.
  Number of s.-c. iterations prior to a full restart of mixing :     2
 
  Reading configuration options for species Si                  .
  | Found nuclear charge :  14.0000
  | Found atomic mass :    28.0855000000000      amu
  | Found l_max for Hartree potential  :   4
  | Found cutoff potl. onset [A], width [A], scale factor :    3.50000    1.50000    1.00000
  | Threshold for basis-dependent cutoff potential is   0.100000E-03
  | Found data for basic radial integration grid :    42 points, outermost radius =    5.000 A
  | Found multiplier for basic radial grid :   1
  | Found angular grid specification: user-specified.
  | Specified grid contains     5 separate shells.
  | Check grid settings after all constraints further below.
  | Found free-atom valence shell :  3 s   2.000
  | Found free-atom valence shell :  3 p   2.000
  | Found free-ion valence shell :  3 s   1.000
  | Found free-ion valence shell :  3 p   1.000
  | Found hydrogenic basis function :  3 d   4.200
  | Found hydrogenic basis function :  2 p   1.400
  | Found hydrogenic basis function :  4 f   6.200
  | Found ionic basis function :  3 s , default cutoff radius.
  Species Si                  : Missing cutoff potential type.
  Defaulting to exp(1/x)/(1-x)^2 type cutoff potential.
  Species Si: No 'logarithmic' tag. Using default grid for free atom:
  | Default logarithmic grid data [bohr] : 0.1000E-03 0.1000E+03 0.1012E+01
  | Will include ionic basis functions of  2.0-fold positive Si                   ion.
  Species Si: On-site basis accuracy parameter (for Gram-Schmidt orthonormalisation) not specified.
  Using default value basis_acc =  0.1000000E-03.
  Species Si                  : Using default innermost maximum threshold i_radial=  2 for radial functions.
  Species Si                  : Default cutoff onset for free atom density etc. : 0.35000000E+01 AA.
  Species Si                  : Basic radial grid will be enhanced according to radial_multiplier =   1, to contain    42 grid points.
 
  Finished reading input file 'control.in'.
 
------------------------------------------------------------


------------------------------------------------------------
          Reading geometry description geometry.in.
------------------------------------------------------------
  Found relaxation constraint for atom      1: All coordinates fixed.
  Found relaxation constraint for atom      2: All coordinates fixed.
  | The smallest distance between any two atoms is         2.51407175 AA.
  | The first atom of this pair is atom number                      1 .
  | The second atom of this pair is atom number                     2 .
  | Wigner-Seitz cell of the first atom image           0     0     0 .
  | (The Wigner-Seitz cell of the second atom is 0 0 0  by definition.)

  Symmetry information by spglib:
  | Precision set to  0.1E-04
  | Number of Operations  : 48
  | Space group           : 227
  | International         : Fd-3m
  | Schoenflies           : Oh^7
  Input structure read successfully.
  The structure contains        2 atoms,  and a total of         28.000 electrons.

  Input geometry:
  | Unit cell:
  |        0.00000000        2.90300000        2.90300000
  |        2.90300000        0.00000000        2.90300000
  |        2.90300000        2.90300000        0.00000000
  | Atomic structure:
  |       Atom                x [A]            y [A]            z [A]
  |    1: Species Si            0.00000000        0.00000000        0.00000000
  |    2: Species Si            1.45150000        1.45150000        1.45150000

  Lattice parameters for 3D lattice (in Angstroms) :     4.105462    4.105462    4.105462
  Angle(s) between unit vectors (in degrees)       :    60.000000   60.000000   60.000000


  Quantities derived from the lattice vectors:
  | Reciprocal lattice vector 1: -1.082188  1.082188  1.082188
  | Reciprocal lattice vector 2:  1.082188 -1.082188  1.082188
  | Reciprocal lattice vector 3:  1.082188  1.082188 -1.082188
  | Unit cell volume                               :   0.489295E+02  A^3

 
  Finished reading input file 'control.in'.
 

------------------------------------------------------------
          Reading geometry description geometry.in.
------------------------------------------------------------
 
  Consistency checks for stacksize environment parameter are next.
 
  | Maximum stacksize for task 0: unlimited
  | Maximum stacksize for task 1: unlimited
  | Maximum stacksize for task 2: unlimited
  | Maximum stacksize for task 3: unlimited
  | Current stacksize for task 0: unlimited
  | Current stacksize for task 1: unlimited
  | Current stacksize for task 2: unlimited
  | Current stacksize for task 3: unlimited
 
  Consistency checks for the contents of control.in are next.
 
  MPI_IN_PLACE appears to work with this MPI implementation.
  | Keeping use_mpi_in_place .true. (see manual).
  Target number of points in a grid batch is not set. Defaulting to  100
  Method for grid partitioning is not set. Defaulting to parallel hash+maxmin partitioning.
  Batch size limit is not set. Defaulting to    200
  By default, will store active basis functions for each batch.
  If in need of memory, prune_basis_once .false. can be used to disable this option.
  communication_type for Hartree potential was not specified.
  Defaulting to calc_hartree .
  Defaulting to Pulay charge density mixer.
  Pulay mixer: Number of relevant iterations not set.
  Defaulting to    8 iterations.
  Pulay mixer: Number of initial linear mixing iterations not set.
  Defaulting to    0 iterations.
  Work space size for distributed Hartree potential not set.
  Defaulting to   0.200000E+03 MB.
  Mixing parameter for charge density mixing has not been set.
  Using default: charge_mix_param =     0.0500.
  The mixing parameter will be adjusted in iteration number     2 of the first full s.c.f. cycle only.
  Algorithm-dependent basis array size parameters:
  | n_max_pulay                         :        8
  Maximum number of self-consistency iterations not provided.
  Presetting  1000 iterations.
  Presetting a factor      1.000 between actual scf density residual
  and density convergence criterion sc_accuracy_rho below which sc_init_iter
  takes no effect.
  No maximum number of relaxation steps, defaulting to     1000
  Default initial Hessian is Lindh matrix (thres = 15.00) plus  0.200000E+01 eV/A^2 times unity.
  No maximum energy tolerance for TRM/BFGS moves, defaulting to   0.100000E-02
  Maximum energy tolerance by which TRM/BFGS trajectory may increase over multiple steps:   0.300000E-02
  No harmonic length scale. Defaulting to   0.250000E-01 A.
  No trust radius initializer. Defaulting to   0.200000E+00 A.
  Unit cell relaxation: Unit cell will be relaxed fully.
  Unit cell relaxation: Analytical stress will be used.
  Analytical stress will be computed.
  Analytical stress calculation: Only the upper triangle is calculated.
                                 Final output is symmetrized.
  Analytical stress calculation: scf convergence accuracy of stress not set.
                                 Analytical stress self-consistency will not be checked explicitly.
                                 Be sure to set other criteria like sc_accuracy_rho tight enough.
  Forces evaluation will include force correction term due to incomplete self-consistency (default).
  Force calculation: scf convergence accuracy of forces not set.
  Defaulting to 'sc_accuracy_forces not_checked'.
  Handling of forces: Unphysical translation and rotation will be removed from forces.
  No accuracy limit for integral partition fn. given. Defaulting to  0.1000E-14.
  No threshold value for u(r) in integrations given. Defaulting to  0.1000E-05.
  No occupation type (smearing scheme) given. Defaulting to Gaussian broadening, width =  0.1000E-01 eV.
  The width will be adjusted in iteration number     2 of the first full s.c.f. cycle only.
  S.C.F. convergence parameters will be adjusted in iteration number     2 of the first full s.c.f. cycle only.
  No accuracy for occupation numbers given. Defaulting to  0.1000E-12.
  No threshold value for occupation numbers given. Defaulting to  0.0000E+00.
  No accuracy for fermi level given. Defaulting to  0.1000E-19.
  Maximum # of iterations to find E_F not set. Defaulting to  200.
  Preferred method for the eigenvalue solver ('KS_method') not specified in 'control.in'.
  Defaulting to serial version, LAPACK (via ELSI), since more k-points than CPUs available.
  Will not use alltoall communication since running on < 1024 CPUs.
  Threshold for basis singularities not set.
  Default threshold for basis singularities:  0.1000E-04
  partition_type (choice of integration weights) for integrals was not specified.
  | Using a version of the partition function of Stratmann and coworkers ('stratmann_sparse').
  | At each grid point, the set of atoms used to build the partition table is smoothly restricted to
  | only those atoms whose free-atom density would be non-zero at that grid point.
  Partitioning for Hartree potential was not defined. Using partition_type for integrals.
  | Adjusted default value of keyword multip_moments_threshold to:       0.10000000E-11
  | This value may affect high angular momentum components of the Hartree potential in periodic systems.
  Spin handling was not defined in control.in. Defaulting to unpolarized case.
  Angular momentum expansion for Kerker preconditioner not set explicitly.
  | Using default value of   0
  No explicit requirement for turning off preconditioner.
  | By default, it will be turned off when the charge convergence reaches
  | sc_accuracy_rho  =   0.100000E-05
  No special mixing parameter while Kerker preconditioner is on.
  Using default: charge_mix_param =     0.0500.
  No q(lm)/r^(l+1) cutoff set for long-range Hartree potential.
  | Using default value of  0.100000E-09 .
  | Verify using the multipole_threshold keyword.
  Defaulting to new monopole extrapolation.
  Density update method: automatic selection selected.
  Using density matrix based charge density update.
  Using density matrix based charge density update.
  Using packed matrix style: index .
  Geometry relaxation: A file "geometry.in.next_step" is written out by default after each step.
  | This file contains the geometry of the current relaxation step as well as
  | the current Hessian matrix needed to restart the relaxation algorithm.
  | If you do not want part or all of this information, use the keywords
  | "write_restart_geometry" or "hessian_to_restart_geometry" to switch the output off.
  Defaulting to use time-reversal symmetry for k-point grid.
  Charge integration errors on the 3D integration grid will be compensated
  by explicit normalization and distribution of residual charges.
  Use the "compensate_multipole_errors" flag to change this behaviour.
  Set 'collect_eigenvectors' to be '.true.' for all serial calculations. This is mandatory.
  Set 'collect_eigenvectors' to be '.true.' for KS_method lapack_fast and serial.
 
  Consistency checks for the contents of geometry.in are next.
 

  Range separation radius for Ewald summation (hartree_convergence_parameter):      4.18308528 bohr.
  Number of empty states per atom not set in control.in - providing a guess from actual geometry.
  | Total number of empty states used during s.c.f. cycle:        6
  If you use a very high smearing, use empty_states (per atom!) in control.in to increase this value.

  Structure-dependent array size parameters: 
  | Maximum number of distinct radial functions  :        9
  | Maximum number of basis functions            :       50
  | Number of Kohn-Sham states (occupied + empty):       20
------------------------------------------------------------

------------------------------------------------------------
          Preparing all fixed parts of the calculation.
------------------------------------------------------------
  Determining machine precision:
    2.225073858507201E-308
  Setting up grids for atomic and cluster calculations.

  Creating wave function, potential, and density for free atoms.

  Species: Si

  List of occupied orbitals and eigenvalues:
    n    l              occ      energy [Ha]    energy [eV]
    1    0           2.0000       -65.491668     -1782.1190
    2    0           2.0000        -5.087967      -138.4506
    3    0           2.0000        -0.391471       -10.6525
    2    1           6.0000        -3.502246       -95.3010
    3    1           2.0000        -0.143943        -3.9169


  Adding cutoff potential to free-atom effective potential.
  Creating fixed part of basis set: Ionic, confined, hydrogenic.
 
  Si                   ion:

  List of free ionic orbitals and eigenvalues:
    n    l      energy [Ha]    energy [eV]
    1    0       -66.364436     -1805.8682
    2    0        -5.935799      -161.5213
    3    0        -1.078166       -29.3384
    2    1        -4.351123      -118.4001
    3    1        -0.781733       -21.2720


  List of ionic basis orbitals and eigenvalues:
    n    l      energy [Ha]    energy [eV]    outer radius [A]
    3    0        -1.078146       -29.3378       4.214062

 
  Si                   hydrogenic:
 
  List of hydrogenic basis orbitals: 
    n    l      effective z      eigenvalue [eV]  inner max. [A]     outer max. [A]     outer radius [A]   
    3    2         4.200000       -26.6624           1.139231           1.139231           4.534782
    2    1         1.400000        -6.4613           1.472672           1.472672           4.590560
    4    3         6.200000       -32.6778           1.368518           1.368518           4.534782
 
  Creating atomic-like basis functions for current effective potential.

  Species Si                  :

  List of atomic basis orbitals and eigenvalues:
    n    l      energy [Ha]    energy [eV]    outer radius [A]
    1    0       -65.491668     -1782.1190       0.789468
    2    0        -5.087967      -138.4506       2.815114
    3    0        -0.391471       -10.6525       4.534782
    2    1        -3.502246       -95.3010       3.259919
    3    1        -0.143943        -3.9169       4.590560

  Assembling full basis from fixed parts.
  | Species Si :   atomic orbital   1 s accepted.
  | Species Si :   atomic orbital   2 s accepted.
  | Species Si :    ionic orbital   3 s accepted.
  | Species Si :   atomic orbital   3 s accepted.
  | Species Si :   atomic orbital   2 p accepted.
  | Species Si :   atomic orbital   3 p accepted.
  | Species Si :    hydro orbital   2 p accepted.
  | Species Si :    hydro orbital   3 d accepted.
  | Species Si :    hydro orbital   4 f accepted.
 
  Basis size parameters after reduction:
  | Total number of radial functions:        9
  | Total number of basis functions :       50
 
  Per-task memory consumption for arrays in subroutine allocate_ext:
  |           3.102808MB.
  Testing on-site integration grid accuracy.
  |  Species  Function  <phi|h_atom|phi> (log., in eV)  <phi|h_atom|phi> (rad., in eV)
           1        1              -1782.1189727076              -1782.1182429251
           1        2               -138.4506350693               -138.4506310079
           1        3                -10.3030408815                -10.3029120678
           1        4                  5.0238999146                  4.9457540310 ***
           1        5                -95.3009689499                -95.3009689315
           1        6                 -3.9266496564                 -3.9420918374
           1        7                  6.3453628447                  6.1632372158 ***
           1        8                  6.2883050744                  6.2861881409
           1        9                 19.3222464920                 19.3177041052
 * Note: Onsite integrals marked "***" above are less accurate than
 * onsite_accuracy_threshold =    0.03000 eV. Usually, this is harmless.
 * When in doubt, tighten the "radial" and/or "radial_multiplier" flags to check.

  Preparing densities etc. for the partition functions (integrals / Hartree potential).

  Preparations completed.
  max(cpu_time)          :      0.156 s.
  Wall clock time (cpu1) :      0.158 s.
------------------------------------------------------------

------------------------------------------------------------
          Begin self-consistency loop: Initialization.

          Date     :  20211125, Time     :  085915.988
------------------------------------------------------------

  Initializing index lists of integration centers etc. from given atomic structure:
  Mapping all atomic coordinates to central unit cell.

  Initializing the k-points
  Using symmetry for reducing the k-points
  | k-points reduced from:       64 to       36
  | Number of k-points                             :        36
  The eigenvectors in the calculations are COMPLEX.
  | K-points in task   0:         9
  | K-points in task   1:         9
  | K-points in task   2:         9
  | K-points in task   3:         9
  | Number of basis functions in the Hamiltonian integrals :      1667
  | Number of basis functions in a single unit cell        :        50
  | Number of centers in hartree potential         :       708
  | Number of centers in hartree multipole         :       228
  | Number of centers in electron density summation:       190
  | Number of centers in basis integrals           :       191
  | Number of centers in integrals                 :       101
  | Number of centers in hamiltonian               :       190
  | Consuming         63 KiB for k_phase.
  | Number of super-cells (origin) [n_cells]                     :        2197
  | Number of super-cells (after PM_index) [n_cells]             :         112
  | Number of super-cells in hamiltonian [n_cells_in_hamiltonian]:         112
  | Size of matrix packed + index [n_hamiltonian_matrix_size] :       76959

  Initializing relaxation algorithms.
  Finished initialization of distributed Hessian storage.
  | Global dimension:         9
  | BLACS block size:         3
  | Number of workers:        3

  | Estimated reciprocal-space cutoff momentum G_max:         2.22382389 bohr^-1 .
  | Reciprocal lattice points for long-range Hartree potential:      58
  Partitioning the integration grid into batches with parallel hashing+maxmin method.
  | Number of batches:      149
  | Maximal batch size:     111
  | Minimal batch size:      52
  | Average batch size:      75.221
  | Standard deviation of batch sizes:      14.751

  Integration load balanced across     4 MPI tasks.
  Work distribution over tasks is as follows:
  Task     0 has       2838 integration points.
  Task     1 has       2808 integration points.
  Task     2 has       2756 integration points.
  Task     3 has       2806 integration points.
  Initializing partition tables, free-atom densities, potentials, etc. across the integration grid (initialize_grid_storage).
  | initialize_grid_storage: Actual outermost partition radius vs. multipole_radius_free
  | (-- VB: in principle, multipole_radius_free should be larger, hence this output)
  | Species        1: Confinement radius =              4.999999999999999 AA, multipole_radius_free =              5.000694715736543 AA.
  | Species        1: outer_partition_radius set to              5.000694715736543 AA .
  | The sparse table of interatomic distances needs        180.43 kbyte instead of       291.85 kbyte of memory.
  | Net number of integration points:    11208
  | of which are non-zero points    :    10044
  | Numerical average free-atom electrostatic potential    :    -10.75398040 eV
  Renormalizing the initial density to the exact electron count on the 3D integration grid.
  | Initial density: Formal number of electrons (from input files) :      28.0000000000
  | Integrated number of electrons on 3D grid     :      28.0029650744
  | Charge integration error                      :       0.0029650744
  | Normalization factor for density and gradient :       0.9998941157
  Renormalizing the free-atom superposition density to the exact electron count on the 3D integration grid.
  | Formal number of electrons (from input files) :      28.0000000000
  | Integrated number of electrons on 3D grid     :      28.0029650744
  | Charge integration error                      :       0.0029650744
  | Normalization factor for density and gradient :       0.9998941157
  Obtaining max. number of non-zero basis functions in each batch (get_n_compute_maxes).
  | Maximal number of non-zero basis functions:      584 in task     0
  | Maximal number of non-zero basis functions:      598 in task     1
  | Maximal number of non-zero basis functions:      561 in task     2
  | Maximal number of non-zero basis functions:      603 in task     3
  Allocating        0.137 MB for KS_eigenvector_complex
  Integrating Hamiltonian matrix: batch-based integration.
  Time summed over all CPUs for integration: real work        0.879 s, elapsed        0.911 s
  Integrating overlap matrix.
  Time summed over all CPUs for integration: real work        0.674 s, elapsed        0.712 s
  Decreasing sparse matrix size:
  | Tolerance:  0.1000E-12
  Hamiltonian matrix
  | Array has    63794 nonzero elements out of    76959 elements
  | Sparsity factor is 0.171
  Overlap matrix
  | Array has    60586 nonzero elements out of    76959 elements
  | Sparsity factor is 0.213
  New size of hamiltonian matrix:       64295

  Updating Kohn-Sham eigenvalues and eigenvectors using ELSI and the (modified) LAPACK eigensolver.

  Obtaining occupation numbers and chemical potential using ELSI.
  | Chemical potential (Fermi level):    -5.90347327 eV
  Writing Kohn-Sham eigenvalues.
  K-point:       1 at    0.000000    0.000000    0.000000 (in units of recip. lattice)

  State    Occupation    Eigenvalue [Ha]    Eigenvalue [eV]
      1       2.00000         -65.503820        -1782.44962
      2       2.00000         -65.503820        -1782.44962
      3       2.00000          -5.103209         -138.86538
      4       2.00000          -5.103099         -138.86239
      5       2.00000          -3.517470          -95.71524
      6       2.00000          -3.517470          -95.71524
      7       2.00000          -3.517470          -95.71524
      8       2.00000          -3.517194          -95.70771
      9       2.00000          -3.517194          -95.70771
     10       2.00000          -3.517194          -95.70771
     11       2.00000          -0.609665          -16.58982
     12       2.00000          -0.219018           -5.95979
     13       2.00000          -0.219018           -5.95979
     14       2.00000          -0.219018           -5.95979
     15       0.00000          -0.177544           -4.83123
     16       0.00000          -0.123181           -3.35194
     17       0.00000          -0.123181           -3.35194
     18       0.00000          -0.123181           -3.35194
     19       0.00000           0.073597            2.00267
     20       0.00000           0.076566            2.08347

  What follows are estimated values for band gap, HOMO, LUMO, etc.
  | They are estimated on a discrete k-point grid and not necessarily exact.
  | For converged numbers, create a DOS and/or band structure plot on a denser k-grid.

  Highest occupied state (VBM) at     -5.95978655 eV (relative to internal zero)
  | Occupation number:      2.00000000
  | K-point:       1 at    0.000000    0.000000    0.000000 (in units of recip. lattice)

  Lowest unoccupied state (CBM) at    -5.07217954 eV (relative to internal zero)
  | Occupation number:      0.00000000
  | K-point:      23 at    0.500000    0.000000    0.000000 (in units of recip. lattice)

  ESTIMATED overall HOMO-LUMO gap:      0.88760702 eV between HOMO at k-point 1 and LUMO at k-point 23
  | This appears to be an indirect band gap.
  | Smallest direct gap :      1.12855733 eV for k_point 1 at    0.000000    0.000000    0.000000 (in units of recip. lattice)
  The gap value is above 0.2 eV. Unless you are using a very sparse k-point grid,
  this system is most likely an insulator or a semiconductor.
  Calculating total energy contributions from superposition of free atom densities.

  Total energy components:
  | Sum of eigenvalues            :        -327.70170300 Ha       -8917.21704166 eV
  | XC energy correction          :         -39.56277163 Ha       -1076.55779082 eV
  | XC potential correction       :          52.26963612 Ha        1422.32916613 eV
  | Free-atom electrostatic energy:        -263.72617026 Ha       -7176.35422165 eV
  | Hartree energy correction     :           0.00000000 Ha           0.00000000 eV
  | Entropy correction            :          -0.00000000 Ha          -0.00000000 eV
  | ---------------------------
  | Total energy                  :        -578.72100877 Ha      -15747.79988800 eV
  | Total energy, T -> 0          :        -578.72100877 Ha      -15747.79988800 eV  <-- do not rely on this value for anything but (periodic) metals
  | Electronic free energy        :        -578.72100877 Ha      -15747.79988800 eV

  Derived energy quantities:
  | Kinetic energy                :         579.47126660 Ha       15768.21544202 eV
  | Electrostatic energy          :       -1118.62950374 Ha      -30439.45753920 eV
  | Energy correction for multipole
  | error in Hartree potential    :           0.00000000 Ha           0.00000000 eV
  | Sum of eigenvalues per atom                           :       -4458.60852083 eV
  | Total energy (T->0) per atom                          :       -7873.89994400 eV  <-- do not rely on this value for anything but (periodic) metals
  | Electronic free energy per atom                       :       -7873.89994400 eV
  Initialize hartree_potential_storage
  Max. number of atoms included in rho_multipole:            2

  End scf initialization - timings             :  max(cpu_time)    wall_clock(cpu1)
  | Time for scf. initialization               :        0.571 s           0.571 s
  | Boundary condition initialization          :        0.053 s           0.053 s
  | Relaxation initialization                  :        0.000 s           0.001 s
  | Integration                                :        0.410 s           0.410 s
  | Solution of K.-S. eqns.                    :        0.021 s           0.021 s
  | Grid partitioning                          :        0.019 s           0.019 s
  | Preloading free-atom quantities on grid    :        0.055 s           0.055 s
  | Free-atom superposition energy             :        0.011 s           0.011 s
  | Total energy evaluation                    :        0.000 s           0.000 s

  Partial memory accounting:
  | Current value for overall tracked memory usage:
  |   Minimum:        1.366 MB (on task 3)
  |   Maximum:        1.366 MB (on task 0)
  |   Average:        1.366 MB
  | Peak value for overall tracked memory usage:
  |   Minimum:        5.434 MB (on task 2 after allocating wave)
  |   Maximum:        5.913 MB (on task 3 after allocating wave)
  |   Average:        5.724 MB
  | Largest tracked array allocation so far:
  |   Minimum:        2.401 MB (hamiltonian_shell on task 2)
  |   Maximum:        2.774 MB (hamiltonian_shell on task 3)
  |   Average:        2.626 MB
  Note:  These values currently only include a subset of arrays which are explicitly tracked.
  The "true" memory usage will be greater.
------------------------------------------------------------
  Time for density update prior                :  max(cpu_time)    wall_clock(cpu1)
  | self-consistency iterative process         :        0.228 s           0.228 s
------------------------------------------------------------
Convergence:    q app. |  density  | eigen (eV) | Etot (eV) | forces (eV/A) |       CPU time |     Clock time
  SCF    1 :  0.00E+00 |  0.99E-01 |   0.76E+00 |  0.14E-01 |             . |        0.610 s |        0.610 s
  SCF    2 :  0.00E+00 |  0.94E-01 |   0.13E+02 |  0.11E+00 |             . |        0.715 s |        0.715 s

  Total energy components:
  | Sum of eigenvalues            :        -327.18658594 Ha       -8903.19999328 eV
  | XC energy correction          :         -39.60465510 Ha       -1077.69749783 eV
  | XC potential correction       :          52.32469245 Ha        1423.82732522 eV
  | Free-atom electrostatic energy:        -263.72617026 Ha       -7176.35422165 eV
  | Hartree energy correction     :          -0.52376689 Ha         -14.25242221 eV
  | Entropy correction            :           0.00000000 Ha           0.00000000 eV
  | ---------------------------
  | Total energy                  :        -578.71648573 Ha      -15747.67680975 eV
  | Total energy, T -> 0          :        -578.71648573 Ha      -15747.67680975 eV  <-- do not rely on this value for anything but (periodic) metals
  | Electronic free energy        :        -578.71648573 Ha      -15747.67680975 eV

  Derived energy quantities:
  | Kinetic energy                :         579.45448244 Ha       15767.75872183 eV
  | Electrostatic energy          :       -1118.56631307 Ha      -30437.73803374 eV
  | Energy correction for multipole
  | error in Hartree potential    :           0.00884809 Ha           0.24076872 eV
  | Sum of eigenvalues per atom                           :       -4451.59999664 eV
  | Total energy (T->0) per atom                          :       -7873.83840487 eV  <-- do not rely on this value for anything but (periodic) metals
  | Electronic free energy per atom                       :       -7873.83840487 eV
  What follows are estimated values for band gap, HOMO, LUMO, etc.
  | They are estimated on a discrete k-point grid and not necessarily exact.
  | For converged numbers, create a DOS and/or band structure plot on a denser k-grid.

  Highest occupied state (VBM) at     -5.48584615 eV (relative to internal zero)
  | Occupation number:      2.00000000
  | K-point:       1 at    0.000000    0.000000    0.000000 (in units of recip. lattice)

  Lowest unoccupied state (CBM) at    -4.77274565 eV (relative to internal zero)
  | Occupation number:      0.00000000
  | K-point:       3 at    0.000000    0.000000    0.500000 (in units of recip. lattice)

  ESTIMATED overall HOMO-LUMO gap:      0.71310050 eV between HOMO at k-point 1 and LUMO at k-point 3
  | This appears to be an indirect band gap.
  | Smallest direct gap :      1.12549766 eV for k_point 1 at    0.000000    0.000000    0.000000 (in units of recip. lattice)
  The gap value is above 0.2 eV. Unless you are using a very sparse k-point grid,
  this system is most likely an insulator or a semiconductor.
  | Chemical Potential                          :    -5.08925643 eV

  Self-consistency cycle not yet converged - restarting mixer to attempt better convergence.

  +-------------------------------------------------------------------+
  |              Analytical stress tensor - Symmetrized               |
  |                  Cartesian components [eV/A**3]                   |
  +-------------------------------------------------------------------+
  |                x                y                z                |
  |                                                                   |
  |  x         0.00000000       0.00000000       0.00000000           |
  |  y         0.00000000       0.00000000       0.00000000           |
  |  z         0.00000000       0.00000000       0.00000000           |
  |                                                                   |
  |  Pressure:       0.00000000   [eV/A**3]                           |
  |                                                                   |
  +-------------------------------------------------------------------+

  Energy and forces in a compact form:
  | Total energy uncorrected      :         -0.157476768097464E+05 eV
  | Total energy corrected        :         -0.157476768097464E+05 eV  <-- do not rely on this value for anything but (periodic) metals
  | Electronic free energy        :         -0.157476768097464E+05 eV
  Total atomic forces (unitary forces were cleaned, then relaxation constraints were applied) [eV/Ang]:
  |    1          0.000000000000000E+00          0.000000000000000E+00          0.000000000000000E+00
  |    2          0.000000000000000E+00          0.000000000000000E+00          0.000000000000000E+00

  Relaxation / MD: End force evaluation.       :  max(cpu_time)    wall_clock(cpu1)
  | Time for this force evaluation             :        2.127 s           2.127 s
  No geometry change - only restart of scf mixer after initial iterations.

------------------------------------------------------------
          Begin self-consistency loop: Re-initialization.

  Date     :  20211125, Time     :  085918.116
------------------------------------------------------------

  Initializing index lists of integration centers etc. from given atomic structure:
  Mapping all atomic coordinates to central unit cell.

  Initializing the k-points
  Using symmetry for reducing the k-points
  | k-points reduced from:       64 to       36
  | Number of k-points                             :        36
  The eigenvectors in the calculations are COMPLEX.
  | K-points in task   0:         9
  | K-points in task   1:         9
  | K-points in task   2:         9
  | K-points in task   3:         9
  | Number of basis functions in the Hamiltonian integrals :      1667
  | Number of basis functions in a single unit cell        :        50
  | Number of centers in hartree potential         :       708
  | Number of centers in hartree multipole         :       228
  | Number of centers in electron density summation:       190
  | Number of centers in basis integrals           :       191
  | Number of centers in integrals                 :       101
  | Number of centers in hamiltonian               :       190
  | Consuming         63 KiB for k_phase.
  | Number of super-cells (origin) [n_cells]                     :        2197
  | Number of super-cells (after PM_index) [n_cells]             :         112
  | Number of super-cells in hamiltonian [n_cells_in_hamiltonian]:         112
  | Size of matrix packed + index [n_hamiltonian_matrix_size] :       76959
  Partitioning the integration grid into batches with parallel hashing+maxmin method.
  Initializing partition tables, free-atom densities, potentials, etc. across the integration grid (initialize_grid_storage).
  | Species        1: outer_partition_radius set to              5.000694715736543 AA .
  | Net number of integration points:    11208
  | of which are non-zero points    :    10044
  Renormalizing the initial density to the exact electron count on the 3D integration grid.
  | Initial density: Formal number of electrons (from input files) :      28.0000000000
  | Integrated number of electrons on 3D grid     :      28.0029650744
  | Charge integration error                      :       0.0029650744
  | Normalization factor for density and gradient :       0.9998941157
  Renormalizing the free-atom superposition density to the exact electron count on the 3D integration grid.
  | Formal number of electrons (from input files) :      28.0000000000
  | Integrated number of electrons on 3D grid     :      28.0029650744
  | Charge integration error                      :       0.0029650744
  | Normalization factor for density and gradient :       0.9998941157
  Calculating total energy contributions from superposition of free atom densities.
  Initialize hartree_potential_storage
  Max. number of atoms included in rho_multipole:            2
  Integrating overlap matrix.
  Time summed over all CPUs for integration: real work        0.648 s, elapsed        0.678 s
  Orthonormalizing eigenvectors

  End scf reinitialization - timings           :  max(cpu_time)    wall_clock(cpu1)
  | Time for scf. reinitialization             :        0.313 s           0.312 s
  | Boundary condition initialization          :        0.052 s           0.052 s
  | Integration                                :        0.170 s           0.170 s
  | Grid partitioning                          :        0.020 s           0.020 s
  | Preloading free-atom quantities on grid    :        0.058 s           0.058 s
  | Free-atom superposition energy             :        0.010 s           0.010 s
  | K.-S. eigenvector reorthonormalization     :        0.002 s           0.002 s
------------------------------------------------------------
  Time for density update prior                :  max(cpu_time)    wall_clock(cpu1)
  | self-consistency iterative process         :        0.219 s           0.219 s
------------------------------------------------------------
Convergence:    q app. |  density  | eigen (eV) | Etot (eV) | forces (eV/A) |       CPU time |     Clock time
  SCF    1 :  0.00E+00 |  0.92E-01 |  -0.89E+04 | -0.16E+05 |             . |        0.719 s |        0.719 s
  SCF    2 :  0.00E+00 |  0.72E-02 |   0.87E+00 |  0.29E-03 |             . |        0.542 s |        0.543 s
  SCF    3 :  0.00E+00 |  0.53E-02 |   0.25E+01 |  0.33E-04 |             . |        0.573 s |        0.573 s
  SCF    4 :  0.00E+00 |  0.10E-02 |   0.34E+00 | -0.17E-03 |             . |        0.578 s |        0.579 s
  SCF    5 :  0.00E+00 |  0.42E-03 |  -0.17E-01 | -0.72E-05 |             . |        0.550 s |        0.550 s
  SCF    6 :  0.00E+00 |  0.30E-04 |  -0.86E-02 |  0.18E-05 |             . |        0.582 s |        0.581 s
  SCF    7 :  0.00E+00 |  0.13E-04 |  -0.83E-03 | -0.41E-06 |             . |        0.596 s |        0.596 s
  SCF    8 :  0.00E+00 |  0.99E-06 |  -0.28E-03 | -0.50E-07 |             . |        0.595 s |        0.595 s
  SCF    9 :  0.00E+00 |  0.40E-07 |  -0.38E-04 |  0.38E-08 |      0.16E-08 |        1.630 s |        1.630 s
  SCF   10 :  0.00E+00 |  0.52E-07 |   0.23E-04 | -0.73E-08 |      0.74E-11 |        9.821 s |        9.899 s

  Total energy components:
  | Sum of eigenvalues            :        -327.49092018 Ha       -8911.48134934 eV
  | XC energy correction          :         -39.58200283 Ha       -1077.08109828 eV
  | XC potential correction       :          52.29473091 Ha        1423.01203022 eV
  | Free-atom electrostatic energy:        -263.72617026 Ha       -7176.35422165 eV
  | Hartree energy correction     :          -0.21169424 Ha          -5.76049325 eV
  | Entropy correction            :           0.00000000 Ha           0.00000000 eV
  | ---------------------------
  | Total energy                  :        -578.71605659 Ha      -15747.66513229 eV
  | Total energy, T -> 0          :        -578.71605659 Ha      -15747.66513229 eV  <-- do not rely on this value for anything but (periodic) metals
  | Electronic free energy        :        -578.71605659 Ha      -15747.66513229 eV

  Derived energy quantities:
  | Kinetic energy                :         579.16650358 Ha       15759.92241846 eV
  | Electrostatic energy          :       -1118.30055734 Ha      -30430.50645248 eV
  | Energy correction for multipole
  | error in Hartree potential    :           0.00989114 Ha           0.26915162 eV
  | Sum of eigenvalues per atom                           :       -4455.74067467 eV
  | Total energy (T->0) per atom                          :       -7873.83256615 eV  <-- do not rely on this value for anything but (periodic) metals
  | Electronic free energy per atom                       :       -7873.83256615 eV
  What follows are estimated values for band gap, HOMO, LUMO, etc.
  | They are estimated on a discrete k-point grid and not necessarily exact.
  | For converged numbers, create a DOS and/or band structure plot on a denser k-grid.

  Highest occupied state (VBM) at     -5.55820062 eV (relative to internal zero)
  | Occupation number:      2.00000000
  | K-point:       1 at    0.000000    0.000000    0.000000 (in units of recip. lattice)

  Lowest unoccupied state (CBM) at    -4.83039390 eV (relative to internal zero)
  | Occupation number:      0.00000000
  | K-point:      30 at    0.500000    0.500000    0.500000 (in units of recip. lattice)

  ESTIMATED overall HOMO-LUMO gap:      0.72780672 eV between HOMO at k-point 1 and LUMO at k-point 30
  | This appears to be an indirect band gap.
  | Smallest direct gap :      1.09068260 eV for k_point 1 at    0.000000    0.000000    0.000000 (in units of recip. lattice)
  The gap value is above 0.2 eV. Unless you are using a very sparse k-point grid,
  this system is most likely an insulator or a semiconductor.
  | Chemical Potential                          :    -5.13910510 eV

  Self-consistency cycle converged.

  +-------------------------------------------------------------------+
  |              Analytical stress tensor - Symmetrized               |
  |                  Cartesian components [eV/A**3]                   |
  +-------------------------------------------------------------------+
  |                x                y                z                |
  |                                                                   |
  |  x         0.07748922      -0.00000000      -0.00000000           |
  |  y        -0.00000000       0.07748923       0.00000000           |
  |  z        -0.00000000       0.00000000       0.07748923           |
  |                                                                   |
  |  Pressure:      -0.07748922   [eV/A**3]                           |
  |                                                                   |
  +-------------------------------------------------------------------+

  Energy and forces in a compact form:
  | Total energy uncorrected      :         -0.157476651322907E+05 eV
  | Total energy corrected        :         -0.157476651322907E+05 eV  <-- do not rely on this value for anything but (periodic) metals
  | Electronic free energy        :         -0.157476651322907E+05 eV
  Total atomic forces (unitary forces were cleaned, then relaxation constraints were applied) [eV/Ang]:
  |    1          0.000000000000000E+00          0.000000000000000E+00          0.000000000000000E+00
  |    2          0.000000000000000E+00          0.000000000000000E+00          0.000000000000000E+00

  Relaxation / MD: End force evaluation.       :  max(cpu_time)    wall_clock(cpu1)
  | Time for this force evaluation             :       16.677 s          16.800 s

------------------------------------------------------------
  Geometry optimization: Attempting to predict improved coordinates.

  +-------------------------------------------------------------------+
  | Generalized derivatives on lattice vectors [eV/A]                 |
  +-------------------------------------------------------------------+
  |lattice_vector      -0.65303334       0.65303341       0.65303341  |
  |lattice_vector       0.65303334      -0.65303341       0.65303341  |
  |lattice_vector       0.65303334       0.65303341      -0.65303341  |
  +-------------------------------------------------------------------+
  | Forces on lattice vectors cleaned from atomic contributions [eV/A]|
  +-------------------------------------------------------------------+
  |lattice_vector       0.65303334      -0.65303341      -0.65303341  |
  |lattice_vector      -0.65303334       0.65303341      -0.65303341  |
  |lattice_vector      -0.65303334      -0.65303341       0.65303341  |
  +-------------------------------------------------------------------+
  Net remaining forces (excluding translations, rotations) in present geometry:
  || Forces on atoms   || =   0.000000E+00 eV/A.
  || Forces on lattice || =   0.653033E+00 eV/A^3.
  Maximum force component is  0.653033E+00 eV/A.
  Present geometry is not yet converged.

  Relaxation step number      1: Predicting new coordinates.

  Advancing geometry using trust radius method.
  Allocating        0.137 MB for stored_KS_eigenvector_complex
  | Hessian eigenvalues (eV/A^2): 7.54E+00 ... 3.02E+01
  | Use Quasi-Newton step of length |H^-1 F| = 1.06E-01 A.
  Finished advancing geometry
  | Time :      0.002 s
  Updated atomic structure:
                         x [A]             y [A]             z [A]
  lattice_vector        -0.00000000        2.85968266        2.85968266
  lattice_vector         2.85968267        0.00000000        2.85968267
  lattice_vector         2.85968267        2.85968267        0.00000000

            atom         0.00000000        0.00000000        0.00000000  Si
            atom         1.42984133        1.42984133        1.42984133  Si

  Fractional coordinates:
                         L1                L2                L3
       atom_frac         0.00000000        0.00000000        0.00000000  Si
       atom_frac         0.25000000        0.25000000        0.25000000  Si
------------------------------------------------------------
  Writing the current geometry to file "geometry.in.next_step".
  Writing estimated Hessian matrix to file 'hessian.aims'

  Quantities derived from the lattice vectors:
  | Reciprocal lattice vector 1: -1.098581  1.098581  1.098581
  | Reciprocal lattice vector 2:  1.098581 -1.098581  1.098581
  | Reciprocal lattice vector 3:  1.098581  1.098581 -1.098581
  | Unit cell volume                               :   0.467717E+02  A^3

  Range separation radius for Ewald summation (hartree_convergence_parameter):      4.11545013 bohr.

------------------------------------------------------------
          Begin self-consistency loop: Re-initialization.

  Date     :  20211125, Time     :  085934.920
------------------------------------------------------------

  Initializing index lists of integration centers etc. from given atomic structure:
  Mapping all atomic coordinates to central unit cell.

  Initializing the k-points
  Using symmetry for reducing the k-points
  | k-points reduced from:       64 to       36
  | Number of k-points                             :        36
  The eigenvectors in the calculations are COMPLEX.
  | K-points in task   0:         9
  | K-points in task   1:         9
  | K-points in task   2:         9
  | K-points in task   3:         9
  | Number of basis functions in the Hamiltonian integrals :      1667
  | Number of basis functions in a single unit cell        :        50
  | Number of centers in hartree potential         :       708
  | Number of centers in hartree multipole         :       288
  | Number of centers in electron density summation:       190
  | Number of centers in basis integrals           :       191
  | Number of centers in integrals                 :       101
  | Number of centers in hamiltonian               :       190
  | Consuming         63 KiB for k_phase.
  | Number of super-cells (origin) [n_cells]                     :        2197
  | Number of super-cells (after PM_index) [n_cells]             :         112
  | Number of super-cells in hamiltonian [n_cells_in_hamiltonian]:         112
  | Size of matrix packed + index [n_hamiltonian_matrix_size] :       82403
  Partitioning the integration grid into batches with parallel hashing+maxmin method.
  Initializing partition tables, free-atom densities, potentials, etc. across the integration grid (initialize_grid_storage).
  | Species        1: outer_partition_radius set to              5.000694715736543 AA .
  | Net number of integration points:    11208
  | of which are non-zero points    :     9924
  Renormalizing the initial density to the exact electron count on the 3D integration grid.
  | Initial density: Formal number of electrons (from input files) :      28.0000000000
  | Integrated number of electrons on 3D grid     :      28.0033324488
  | Charge integration error                      :       0.0033324488
  | Normalization factor for density and gradient :       0.9998809981
  Renormalizing the free-atom superposition density to the exact electron count on the 3D integration grid.
  | Formal number of electrons (from input files) :      28.0000000000
  | Integrated number of electrons on 3D grid     :      28.0033324488
  | Charge integration error                      :       0.0033324488
  | Normalization factor for density and gradient :       0.9998809981
  Calculating total energy contributions from superposition of free atom densities.
  Initialize hartree_potential_storage
  Max. number of atoms included in rho_multipole:            2
  Integrating overlap matrix.
  Time summed over all CPUs for integration: real work        0.852 s, elapsed        1.001 s
  Orthonormalizing eigenvectors

  End scf reinitialization - timings           :  max(cpu_time)    wall_clock(cpu1)
  | Time for scf. reinitialization             :        0.436 s           0.436 s
  | Boundary condition initialization          :        0.054 s           0.055 s
  | Integration                                :        0.251 s           0.251 s
  | Grid partitioning                          :        0.020 s           0.020 s
  | Preloading free-atom quantities on grid    :        0.059 s           0.059 s
  | Free-atom superposition energy             :        0.015 s           0.015 s
  | K.-S. eigenvector reorthonormalization     :        0.008 s           0.008 s
------------------------------------------------------------
  Time for density update prior                :  max(cpu_time)    wall_clock(cpu1)
  | self-consistency iterative process         :        0.305 s           0.305 s
------------------------------------------------------------
Convergence:    q app. |  density  | eigen (eV) | Etot (eV) | forces (eV/A) |       CPU time |     Clock time
  SCF    1 :  0.00E+00 |  0.93E-01 |  -0.89E+04 | -0.16E+05 |             . |        0.794 s |        0.798 s
  SCF    2 :  0.00E+00 |  0.26E-02 |   0.33E-01 |  0.69E-05 |             . |        0.685 s |        0.685 s
  SCF    3 :  0.00E+00 |  0.22E-02 |   0.22E-01 | -0.52E-05 |             . |        0.637 s |        0.637 s
  SCF    4 :  0.00E+00 |  0.65E-03 |  -0.24E+00 |  0.80E-04 |             . |        0.561 s |        0.561 s
  SCF    5 :  0.00E+00 |  0.12E-03 |  -0.13E-01 |  0.28E-04 |             . |        0.635 s |        0.635 s
  SCF    6 :  0.00E+00 |  0.21E-04 |  -0.62E-02 |  0.34E-05 |             . |        0.617 s |        0.617 s
  SCF    7 :  0.00E+00 |  0.43E-05 |  -0.93E-03 |  0.15E-06 |             . |        0.632 s |        0.632 s
  SCF    8 :  0.00E+00 |  0.18E-05 |   0.22E-03 | -0.29E-06 |             . |        0.663 s |        0.663 s
  SCF    9 :  0.00E+00 |  0.93E-07 |   0.21E-04 | -0.13E-07 |             . |        0.632 s |        0.632 s
  SCF   10 :  0.00E+00 |  0.21E-08 |  -0.42E-06 | -0.18E-09 |      0.39E-07 |        1.432 s |        1.432 s
  SCF   11 :  0.00E+00 |  0.19E-08 |  -0.14E-06 |  0.14E-09 |      0.38E-09 |       10.714 s |       11.009 s

  Total energy components:
  | Sum of eigenvalues            :        -327.49882114 Ha       -8911.69634546 eV
  | XC energy correction          :         -39.60865010 Ha       -1077.80620732 eV
  | XC potential correction       :          52.32976093 Ha        1423.96524533 eV
  | Free-atom electrostatic energy:        -263.64499584 Ha       -7174.14535343 eV
  | Hartree energy correction     :          -0.29910234 Ha          -8.13898879 eV
  | Entropy correction            :          -0.00000000 Ha          -0.00000000 eV
  | ---------------------------
  | Total energy                  :        -578.72180850 Ha      -15747.82164968 eV
  | Total energy, T -> 0          :        -578.72180850 Ha      -15747.82164968 eV  <-- do not rely on this value for anything but (periodic) metals
  | Electronic free energy        :        -578.72180850 Ha      -15747.82164968 eV

  Derived energy quantities:
  | Kinetic energy                :         579.26671769 Ha       15762.64938306 eV
  | Electrostatic energy          :       -1118.37987609 Ha      -30432.66482542 eV
  | Energy correction for multipole
  | error in Hartree potential    :           0.01092259 Ha           0.29721878 eV
  | Sum of eigenvalues per atom                           :       -4455.84817273 eV
  | Total energy (T->0) per atom                          :       -7873.91082484 eV  <-- do not rely on this value for anything but (periodic) metals
  | Electronic free energy per atom                       :       -7873.91082484 eV
  What follows are estimated values for band gap, HOMO, LUMO, etc.
  | They are estimated on a discrete k-point grid and not necessarily exact.
  | For converged numbers, create a DOS and/or band structure plot on a denser k-grid.

  Highest occupied state (VBM) at     -5.60475631 eV (relative to internal zero)
  | Occupation number:      2.00000000
  | K-point:       1 at    0.000000    0.000000    0.000000 (in units of recip. lattice)

  Lowest unoccupied state (CBM) at    -4.74972331 eV (relative to internal zero)
  | Occupation number:      0.00000000
  | K-point:      25 at    0.500000    0.000000    0.500000 (in units of recip. lattice)

  ESTIMATED overall HOMO-LUMO gap:      0.85503300 eV between HOMO at k-point 1 and LUMO at k-point 25
  | This appears to be an indirect band gap.
  | Smallest direct gap :      1.53782130 eV for k_point 1 at    0.000000    0.000000    0.000000 (in units of recip. lattice)
  The gap value is above 0.2 eV. Unless you are using a very sparse k-point grid,
  this system is most likely an insulator or a semiconductor.
  | Chemical Potential                          :    -5.49212418 eV

  Self-consistency cycle converged.

  +-------------------------------------------------------------------+
  |              Analytical stress tensor - Symmetrized               |
  |                  Cartesian components [eV/A**3]                   |
  +-------------------------------------------------------------------+
  |                x                y                z                |
  |                                                                   |
  |  x         0.06610904       0.00000000       0.00000000           |
  |  y         0.00000000       0.06610905      -0.00000000           |
  |  z         0.00000000      -0.00000000       0.06610905           |
  |                                                                   |
  |  Pressure:      -0.06610904   [eV/A**3]                           |
  |                                                                   |
  +-------------------------------------------------------------------+

  Energy and forces in a compact form:
  | Total energy uncorrected      :         -0.157478216496768E+05 eV
  | Total energy corrected        :         -0.157478216496768E+05 eV  <-- do not rely on this value for anything but (periodic) metals
  | Electronic free energy        :         -0.157478216496768E+05 eV
  Total atomic forces (unitary forces were cleaned, then relaxation constraints were applied) [eV/Ang]:
  |    1          0.000000000000000E+00          0.000000000000000E+00          0.000000000000000E+00
  |    2          0.000000000000000E+00          0.000000000000000E+00          0.000000000000000E+00

  Relaxation / MD: End force evaluation.       :  max(cpu_time)    wall_clock(cpu1)
  | Time for this force evaluation             :       18.625 s          19.045 s

------------------------------------------------------------
  Geometry optimization: Attempting to predict improved coordinates.

  +-------------------------------------------------------------------+
  | Generalized derivatives on lattice vectors [eV/A]                 |
  +-------------------------------------------------------------------+
  |lattice_vector      -0.54062550       0.54062557       0.54062557  |
  |lattice_vector       0.54062550      -0.54062558       0.54062558  |
  |lattice_vector       0.54062550       0.54062558      -0.54062558  |
  +-------------------------------------------------------------------+
  | Forces on lattice vectors cleaned from atomic contributions [eV/A]|
  +-------------------------------------------------------------------+
  |lattice_vector       0.54062550      -0.54062557      -0.54062557  |
  |lattice_vector      -0.54062550       0.54062558      -0.54062558  |
  |lattice_vector      -0.54062550      -0.54062558       0.54062558  |
  +-------------------------------------------------------------------+
  Net remaining forces (excluding translations, rotations) in present geometry:
  || Forces on atoms   || =   0.000000E+00 eV/A.
  || Forces on lattice || =   0.540626E+00 eV/A^3.
  Maximum force component is  0.540626E+00 eV/A.
  Present geometry is not yet converged.

  Relaxation step number      2: Predicting new coordinates.

  Advancing geometry using trust radius method.
  | True / expected gain: -1.57E-01 eV / -8.49E-02 eV =    1.8444
  | Harmonic / expected gain: -1.55E-01 eV / -8.49E-02 eV =    1.8279
  | Hessian eigenvalues (eV/A^2): 2.35E+00 ... 3.02E+01
  | Step |H^-1 F|=5.10E-01 A reduced to |(H+3.83E+00eV/A^2)^-1 F|=2.00E-01 A.
  Finished advancing geometry
  | Time :      0.001 s
  Updated atomic structure:
                         x [A]             y [A]             z [A]
  lattice_vector         0.01637727        2.77885841        2.77885841
  lattice_vector         2.77885843        0.01637729        2.77885842
  lattice_vector         2.77885843        2.77885842        0.01637729

            atom         0.00000000        0.00000000        0.00000000  Si
            atom         1.39352353        1.39352353        1.39352353  Si

  Fractional coordinates:
                         L1                L2                L3
       atom_frac         0.00000000        0.00000000        0.00000000  Si
       atom_frac         0.25000000        0.25000000        0.25000000  Si
------------------------------------------------------------
  Writing the current geometry to file "geometry.in.next_step".
  Writing estimated Hessian matrix to file 'hessian.aims'

  Quantities derived from the lattice vectors:
  | Reciprocal lattice vector 1: -1.140577  1.133895  1.133895
  | Reciprocal lattice vector 2:  1.133895 -1.140577  1.133895
  | Reciprocal lattice vector 3:  1.133895  1.133895 -1.140577
  | Unit cell volume                               :   0.425376E+02  A^3

  Range separation radius for Ewald summation (hartree_convergence_parameter):      3.97585847 bohr.

------------------------------------------------------------
          Begin self-consistency loop: Re-initialization.

  Date     :  20211125, Time     :  085953.967
------------------------------------------------------------

  Initializing index lists of integration centers etc. from given atomic structure:
  Mapping all atomic coordinates to central unit cell.

  Initializing the k-points
  Using symmetry for reducing the k-points
  | k-points reduced from:       64 to       36
  | Number of k-points                             :        36
  The eigenvectors in the calculations are COMPLEX.
  | K-points in task   0:         9
  | K-points in task   1:         9
  | K-points in task   2:         9
  | K-points in task   3:         9
  | Number of basis functions in the Hamiltonian integrals :      2161
  | Number of basis functions in a single unit cell        :        50
  | Number of centers in hartree potential         :       720
  | Number of centers in hartree multipole         :       318
  | Number of centers in electron density summation:       190
  | Number of centers in basis integrals           :       198
  | Number of centers in integrals                 :       101
  | Number of centers in hamiltonian               :       190
  | Consuming         63 KiB for k_phase.
  | Number of super-cells (origin) [n_cells]                     :        2197
  | Number of super-cells (after PM_index) [n_cells]             :         112
  | Number of super-cells in hamiltonian [n_cells_in_hamiltonian]:         112
  | Size of matrix packed + index [n_hamiltonian_matrix_size] :       85277
  Partitioning the integration grid into batches with parallel hashing+maxmin method.
  Initializing partition tables, free-atom densities, potentials, etc. across the integration grid (initialize_grid_storage).
  | Species        1: outer_partition_radius set to              5.000694715736543 AA .
  | Net number of integration points:    11208
  | of which are non-zero points    :     9852
  Renormalizing the initial density to the exact electron count on the 3D integration grid.
  | Initial density: Formal number of electrons (from input files) :      28.0000000000
  | Integrated number of electrons on 3D grid     :      28.0043462630
  | Charge integration error                      :       0.0043462630
  | Normalization factor for density and gradient :       0.9998448004
  Renormalizing the free-atom superposition density to the exact electron count on the 3D integration grid.
  | Formal number of electrons (from input files) :      28.0000000000
  | Integrated number of electrons on 3D grid     :      28.0043462630
  | Charge integration error                      :       0.0043462630
  | Normalization factor for density and gradient :       0.9998448004
  Calculating total energy contributions from superposition of free atom densities.
  Initialize hartree_potential_storage
  Max. number of atoms included in rho_multipole:            2
  Integrating overlap matrix.
  Time summed over all CPUs for integration: real work        0.933 s, elapsed        1.129 s
  Orthonormalizing eigenvectors

  End scf reinitialization - timings           :  max(cpu_time)    wall_clock(cpu1)
  | Time for scf. reinitialization             :        0.531 s           0.530 s
  | Boundary condition initialization          :        0.076 s           0.076 s
  | Integration                                :        0.283 s           0.282 s
  | Grid partitioning                          :        0.032 s           0.032 s
  | Preloading free-atom quantities on grid    :        0.091 s           0.092 s
  | Free-atom superposition energy             :        0.015 s           0.014 s
  | K.-S. eigenvector reorthonormalization     :        0.003 s           0.002 s
------------------------------------------------------------
  Time for density update prior                :  max(cpu_time)    wall_clock(cpu1)
  | self-consistency iterative process         :        0.362 s           0.362 s
------------------------------------------------------------
Convergence:    q app. |  density  | eigen (eV) | Etot (eV) | forces (eV/A) |       CPU time |     Clock time
  SCF    1 :  0.00E+00 |  0.98E-01 |  -0.89E+04 | -0.16E+05 |             . |        0.945 s |        0.991 s
  SCF    2 :  0.00E+00 |  0.58E-02 |  -0.43E-01 |  0.15E-03 |             . |        0.776 s |        0.776 s
  SCF    3 :  0.00E+00 |  0.47E-02 |  -0.30E+00 |  0.25E-03 |             . |        0.743 s |        0.743 s
  SCF    4 :  0.00E+00 |  0.94E-03 |  -0.29E+00 |  0.17E-03 |             . |        0.760 s |        0.761 s
  SCF    5 :  0.00E+00 |  0.24E-03 |  -0.40E-01 |  0.57E-04 |             . |        0.733 s |        0.733 s
  SCF    6 :  0.00E+00 |  0.13E-03 |  -0.12E-02 |  0.16E-04 |             . |        0.758 s |        0.758 s
  SCF    7 :  0.00E+00 |  0.47E-04 |   0.15E-02 |  0.14E-05 |             . |        0.980 s |        0.980 s
  SCF    8 :  0.00E+00 |  0.15E-04 |  -0.48E-02 |  0.26E-05 |             . |        1.034 s |        1.079 s
  SCF    9 :  0.00E+00 |  0.13E-05 |   0.17E-03 | -0.54E-07 |             . |        0.827 s |        0.828 s
  SCF   10 :  0.00E+00 |  0.68E-07 |   0.11E-04 | -0.54E-08 |             . |        0.802 s |        0.802 s
  SCF   11 :  0.00E+00 |  0.57E-07 |   0.10E-05 |  0.19E-08 |      0.42E+00 |        1.522 s |        1.522 s
  SCF   12 :  0.00E+00 |  0.20E-08 |   0.23E-06 |  0.68E-10 |      0.33E-06 |       11.299 s |       11.536 s

  Total energy components:
  | Sum of eigenvalues            :        -327.53103443 Ha       -8912.57291346 eV
  | XC energy correction          :         -39.66821658 Ha       -1079.42709385 eV
  | XC potential correction       :          52.40808799 Ha        1426.09663313 eV
  | Free-atom electrostatic energy:        -263.44731572 Ha       -7168.76620356 eV
  | Hartree energy correction     :          -0.49145185 Ha         -13.37308514 eV
  | Entropy correction            :           0.00000000 Ha           0.00000000 eV
  | ---------------------------
  | Total energy                  :        -578.72993059 Ha      -15748.04266288 eV
  | Total energy, T -> 0          :        -578.72993059 Ha      -15748.04266288 eV  <-- do not rely on this value for anything but (periodic) metals
  | Electronic free energy        :        -578.72993059 Ha      -15748.04266288 eV

  Derived energy quantities:
  | Kinetic energy                :         579.51328666 Ha       15769.35886611 eV
  | Electrostatic energy          :       -1118.57500066 Ha      -30437.97443514 eV
  | Energy correction for multipole
  | error in Hartree potential    :           0.01350503 Ha           0.36749066 eV
  | Sum of eigenvalues per atom                           :       -4456.28645673 eV
  | Total energy (T->0) per atom                          :       -7874.02133144 eV  <-- do not rely on this value for anything but (periodic) metals
  | Electronic free energy per atom                       :       -7874.02133144 eV
  What follows are estimated values for band gap, HOMO, LUMO, etc.
  | They are estimated on a discrete k-point grid and not necessarily exact.
  | For converged numbers, create a DOS and/or band structure plot on a denser k-grid.

  Highest occupied state (VBM) at     -5.70880122 eV (relative to internal zero)
  | Occupation number:      2.00000000
  | K-point:       1 at    0.000000    0.000000    0.000000 (in units of recip. lattice)

  Lowest unoccupied state (CBM) at    -5.02897880 eV (relative to internal zero)
  | Occupation number:      0.00000000
  | K-point:      25 at    0.500000    0.000000    0.500000 (in units of recip. lattice)

  ESTIMATED overall HOMO-LUMO gap:      0.67982242 eV between HOMO at k-point 1 and LUMO at k-point 25
  | This appears to be an indirect band gap.
  | Smallest direct gap :      2.34268897 eV for k_point 1 at    0.000000    0.000000    0.000000 (in units of recip. lattice)
  The gap value is above 0.2 eV. Unless you are using a very sparse k-point grid,
  this system is most likely an insulator or a semiconductor.
  | Chemical Potential                          :    -5.31205062 eV

  Self-consistency cycle converged.

  +-------------------------------------------------------------------+
  |              Analytical stress tensor - Symmetrized               |
  |                  Cartesian components [eV/A**3]                   |
  +-------------------------------------------------------------------+
  |                x                y                z                |
  |                                                                   |
  |  x         0.03419647       0.00296978       0.00296978           |
  |  y         0.00296978       0.03419648       0.00296978           |
  |  z         0.00296978       0.00296978       0.03419648           |
  |                                                                   |
  |  Pressure:      -0.03419648   [eV/A**3]                           |
  |                                                                   |
  +-------------------------------------------------------------------+

  Energy and forces in a compact form:
  | Total energy uncorrected      :         -0.157480426628815E+05 eV
  | Total energy corrected        :         -0.157480426628815E+05 eV  <-- do not rely on this value for anything but (periodic) metals
  | Electronic free energy        :         -0.157480426628815E+05 eV
  Total atomic forces (unitary forces were cleaned, then relaxation constraints were applied) [eV/Ang]:
  |    1          0.000000000000000E+00          0.000000000000000E+00          0.000000000000000E+00
  |    2          0.000000000000000E+00          0.000000000000000E+00          0.000000000000000E+00

  Relaxation / MD: End force evaluation.       :  max(cpu_time)    wall_clock(cpu1)
  | Time for this force evaluation             :       21.683 s          22.405 s

------------------------------------------------------------
  Geometry optimization: Attempting to predict improved coordinates.

  +-------------------------------------------------------------------+
  | Generalized derivatives on lattice vectors [eV/A]                 |
  +-------------------------------------------------------------------+
  |lattice_vector      -0.21846248       0.26237639       0.26237639  |
  |lattice_vector       0.26237637      -0.21846253       0.26237642  |
  |lattice_vector       0.26237637       0.26237642      -0.21846253  |
  +-------------------------------------------------------------------+
  | Forces on lattice vectors cleaned from atomic contributions [eV/A]|
  +-------------------------------------------------------------------+
  |lattice_vector       0.21846248      -0.26237639      -0.26237639  |
  |lattice_vector      -0.26237637       0.21846253      -0.26237642  |
  |lattice_vector      -0.26237637      -0.26237642       0.21846253  |
  +-------------------------------------------------------------------+
  Net remaining forces (excluding translations, rotations) in present geometry:
[...]
  | Use Quasi-Newton step of length |H^-1 F| = 1.13E-03 A.
  Finished advancing geometry
  | Time :      0.008 s
  Updated atomic structure:
                         x [A]             y [A]             z [A]
  lattice_vector         0.00006390        2.70950938        2.70950938
  lattice_vector         2.70950941        0.00006393        2.70950939
  lattice_vector         2.70950941        2.70950939        0.00006393

            atom         0.00000000        0.00000000        0.00000000  Si
            atom         1.35477068        1.35477068        1.35477068  Si

  Fractional coordinates:
                         L1                L2                L3
       atom_frac         0.00000000        0.00000000        0.00000000  Si
       atom_frac         0.25000000        0.25000000        0.25000000  Si
------------------------------------------------------------
  Writing the current geometry to file "geometry.in.next_step".
  Writing estimated Hessian matrix to file 'hessian.aims'

  Quantities derived from the lattice vectors:
  | Reciprocal lattice vector 1: -1.159510  1.159483  1.159483
  | Reciprocal lattice vector 2:  1.159483 -1.159510  1.159483
  | Reciprocal lattice vector 3:  1.159483  1.159483 -1.159510
  | Unit cell volume                               :   0.397820E+02  A^3

  Range separation radius for Ewald summation (hartree_convergence_parameter):      3.87946673 bohr.

------------------------------------------------------------
          Begin self-consistency loop: Re-initialization.

  Date     :  20211125, Time     :  090147.620
------------------------------------------------------------

  Initializing index lists of integration centers etc. from given atomic structure:
  Mapping all atomic coordinates to central unit cell.

  Initializing the k-points
  Using symmetry for reducing the k-points
  | k-points reduced from:       64 to       36
  | Number of k-points                             :        36
  The eigenvectors in the calculations are COMPLEX.
  | K-points in task   0:         9
  | K-points in task   1:         9
  | K-points in task   2:         9
  | K-points in task   3:         9
  | Number of basis functions in the Hamiltonian integrals :      2179
  | Number of basis functions in a single unit cell        :        50
  | Number of centers in hartree potential         :       732
  | Number of centers in hartree multipole         :       318
  | Number of centers in electron density summation:       198
  | Number of centers in basis integrals           :       228
  | Number of centers in integrals                 :       101
  | Number of centers in hamiltonian               :       198
  | Consuming         63 KiB for k_phase.
  | Number of super-cells (origin) [n_cells]                     :        2197
  | Number of super-cells (after PM_index) [n_cells]             :         112
  | Number of super-cells in hamiltonian [n_cells_in_hamiltonian]:         112
  | Size of matrix packed + index [n_hamiltonian_matrix_size] :       89403
  Partitioning the integration grid into batches with parallel hashing+maxmin method.
  Initializing partition tables, free-atom densities, potentials, etc. across the integration grid (initialize_grid_storage).
  | Species        1: outer_partition_radius set to              5.000694715736543 AA .
  | Net number of integration points:    11208
  | of which are non-zero points    :     9772
  Renormalizing the initial density to the exact electron count on the 3D integration grid.
  | Initial density: Formal number of electrons (from input files) :      28.0000000000
  | Integrated number of electrons on 3D grid     :      28.0051457916
  | Charge integration error                      :       0.0051457916
  | Normalization factor for density and gradient :       0.9998162555
  Renormalizing the free-atom superposition density to the exact electron count on the 3D integration grid.
  | Formal number of electrons (from input files) :      28.0000000000
  | Integrated number of electrons on 3D grid     :      28.0051457916
  | Charge integration error                      :       0.0051457916
  | Normalization factor for density and gradient :       0.9998162555
  Calculating total energy contributions from superposition of free atom densities.
  Initialize hartree_potential_storage
  Max. number of atoms included in rho_multipole:            2
  Integrating overlap matrix.
  Time summed over all CPUs for integration: real work        1.015 s, elapsed        1.223 s
  Orthonormalizing eigenvectors

  End scf reinitialization - timings           :  max(cpu_time)    wall_clock(cpu1)
  | Time for scf. reinitialization             :        0.593 s           0.608 s
  | Boundary condition initialization          :        0.079 s           0.080 s
  | Integration                                :        0.307 s           0.307 s
  | Grid partitioning                          :        0.033 s           0.034 s
  | Preloading free-atom quantities on grid    :        0.125 s           0.124 s
  | Free-atom superposition energy             :        0.019 s           0.019 s
  | K.-S. eigenvector reorthonormalization     :        0.003 s           0.002 s
------------------------------------------------------------
  Time for density update prior                :  max(cpu_time)    wall_clock(cpu1)
  | self-consistency iterative process         :        0.365 s           0.365 s
------------------------------------------------------------
Convergence:    q app. |  density  | eigen (eV) | Etot (eV) | forces (eV/A) |       CPU time |     Clock time
  SCF    1 :  0.00E+00 |  0.11E+00 |  -0.89E+04 | -0.16E+05 |             . |        1.138 s |        1.149 s
  SCF    2 :  0.00E+00 |  0.47E-04 |   0.16E-02 | -0.55E-06 |             . |        0.789 s |        0.789 s
  SCF    3 :  0.00E+00 |  0.35E-04 |   0.48E-02 | -0.19E-05 |             . |        0.809 s |        0.809 s
  SCF    4 :  0.00E+00 |  0.52E-05 |   0.76E-03 | -0.71E-06 |             . |        0.868 s |        0.881 s
  SCF    5 :  0.00E+00 |  0.83E-06 |  -0.87E-05 | -0.20E-06 |             . |        1.077 s |        1.077 s
  SCF    6 :  0.00E+00 |  0.18E-07 |  -0.86E-05 |  0.25E-08 |      0.16E-02 |        1.809 s |        1.809 s
  SCF    7 :  0.00E+00 |  0.45E-08 |   0.78E-06 | -0.37E-09 |      0.51E-06 |       12.450 s |       12.450 s

  Total energy components:
  | Sum of eigenvalues            :        -327.57830456 Ha       -8913.85919924 eV
  | XC energy correction          :         -39.71251041 Ha       -1080.63239021 eV
  | XC potential correction       :          52.46634457 Ha        1427.68187540 eV
  | Free-atom electrostatic energy:        -263.28361103 Ha       -7164.31157233 eV
  | Hartree energy correction     :          -0.62381143 Ha         -16.97477280 eV
  | Entropy correction            :          -0.00000000 Ha          -0.00000000 eV
  | ---------------------------
  | Total energy                  :        -578.73189287 Ha      -15748.09605918 eV
  | Total energy, T -> 0          :        -578.73189287 Ha      -15748.09605918 eV  <-- do not rely on this value for anything but (periodic) metals
  | Electronic free energy        :        -578.73189287 Ha      -15748.09605918 eV

  Derived energy quantities:
  | Kinetic energy                :         579.70618787 Ha       15774.60797511 eV
  | Electrostatic energy          :       -1118.72557032 Ha      -30442.07164408 eV
  | Energy correction for multipole
  | error in Hartree potential    :           0.01562356 Ha           0.42513874 eV
  | Sum of eigenvalues per atom                           :       -4456.92959962 eV
  | Total energy (T->0) per atom                          :       -7874.04802959 eV  <-- do not rely on this value for anything but (periodic) metals
  | Electronic free energy per atom                       :       -7874.04802959 eV
  What follows are estimated values for band gap, HOMO, LUMO, etc.
  | They are estimated on a discrete k-point grid and not necessarily exact.
  | For converged numbers, create a DOS and/or band structure plot on a denser k-grid.

  Highest occupied state (VBM) at     -5.80524501 eV (relative to internal zero)
  | Occupation number:      2.00000000
  | K-point:       1 at    0.000000    0.000000    0.000000 (in units of recip. lattice)

  Lowest unoccupied state (CBM) at    -5.20606411 eV (relative to internal zero)
  | Occupation number:      0.00000000
  | K-point:      29 at    0.500000    0.500000    0.000000 (in units of recip. lattice)

  ESTIMATED overall HOMO-LUMO gap:      0.59918090 eV between HOMO at k-point 1 and LUMO at k-point 29
  | This appears to be an indirect band gap.
  | Smallest direct gap :      2.51669072 eV for k_point 1 at    0.000000    0.000000    0.000000 (in units of recip. lattice)
  The gap value is above 0.2 eV. Unless you are using a very sparse k-point grid,
  this system is most likely an insulator or a semiconductor.
  | Chemical Potential                          :    -5.62237527 eV

  Self-consistency cycle converged.

  +-------------------------------------------------------------------+
  |              Analytical stress tensor - Symmetrized               |
  |                  Cartesian components [eV/A**3]                   |
  +-------------------------------------------------------------------+
  |                x                y                z                |
  |                                                                   |
  |  x        -0.00007093       0.00001488       0.00001488           |
  |  y         0.00001488      -0.00007093       0.00001488           |
  |  z         0.00001488       0.00001488      -0.00007093           |
  |                                                                   |
  |  Pressure:       0.00007093   [eV/A**3]                           |
  |                                                                   |
  +-------------------------------------------------------------------+

  Energy and forces in a compact form:
  | Total energy uncorrected      :         -0.157480960591774E+05 eV
  | Total energy corrected        :         -0.157480960591774E+05 eV  <-- do not rely on this value for anything but (periodic) metals
  | Electronic free energy        :         -0.157480960591774E+05 eV
  Total atomic forces (unitary forces were cleaned, then relaxation constraints were applied) [eV/Ang]:
  |    1          0.000000000000000E+00          0.000000000000000E+00          0.000000000000000E+00
  |    2          0.000000000000000E+00          0.000000000000000E+00          0.000000000000000E+00

  Relaxation / MD: End force evaluation.       :  max(cpu_time)    wall_clock(cpu1)
  | Time for this force evaluation             :       19.883 s          19.940 s

------------------------------------------------------------
  Geometry optimization: Attempting to predict improved coordinates.

  +-------------------------------------------------------------------+
  | Generalized derivatives on lattice vectors [eV/A]                 |
  +-------------------------------------------------------------------+
  |lattice_vector       0.00073920      -0.00052073      -0.00052073  |
  |lattice_vector      -0.00052075       0.00073918      -0.00052073  |
  |lattice_vector      -0.00052075      -0.00052073       0.00073918  |
  +-------------------------------------------------------------------+
  | Forces on lattice vectors cleaned from atomic contributions [eV/A]|
  +-------------------------------------------------------------------+
  |lattice_vector      -0.00073920       0.00052073       0.00052073  |
  |lattice_vector       0.00052075      -0.00073918       0.00052073  |
  |lattice_vector       0.00052075       0.00052073      -0.00073918  |
  +-------------------------------------------------------------------+
  Net remaining forces (excluding translations, rotations) in present geometry:
  || Forces on atoms   || =   0.000000E+00 eV/A.
  || Forces on lattice || =   0.739203E-03 eV/A^3.
  Maximum force component is  0.739203E-03 eV/A.
  Present geometry is converged.

------------------------------------------------------------
  Final atomic structure:
                         x [A]             y [A]             z [A]
  lattice_vector         0.00006390        2.70950938        2.70950938
  lattice_vector         2.70950941        0.00006393        2.70950939
  lattice_vector         2.70950941        2.70950939        0.00006393

            atom         0.00000000        0.00000000        0.00000000  Si
            atom         1.35477068        1.35477068        1.35477068  Si

  Fractional coordinates:
                         L1                L2                L3
       atom_frac         0.00000000        0.00000000        0.00000000  Si
       atom_frac         0.25000000        0.25000000        0.25000000  Si
------------------------------------------------------------

------------------------------------------------------------------------------
  Final output of selected total energy values:

  The following output summarizes some interesting total energy values
  at the end of a run (AFTER all relaxation, molecular dynamics, etc.).

  | Total energy of the DFT / Hartree-Fock s.c.f. calculation      :         -15748.096059177 eV
  | Final zero-broadening corrected energy (caution - metals only) :         -15748.096059177 eV
  | For reference only, the value of 1 Hartree used in FHI-aims is :             27.211384500 eV
  | For reference only, the overall average (free atom contribution
  | + realspace contribution) of the electrostatic potential after
  | s.c.f. convergence is                                          :            -12.889383342 eV

  Before relying on these values, please be sure to understand exactly which
  total energy value is referred to by a given number. Different objects may
  all carry the same name 'total energy'. Definitions:

  Total energy of the DFT / Hartree-Fock s.c.f. calculation:
  | Note that this energy does not include ANY quantities calculated after the
  | s.c.f. cycle, in particular not ANY RPA, MP2, etc. many-body perturbation terms.

  Final zero-broadening corrected energy:
  | For metallic systems only, a broadening of the occupation numbers at the Fermi
  | level can be extrapolated back to zero broadening by an electron-gas inspired
  | formula. For all systems that are not real metals, this value can be
  | meaningless and should be avoided.

------------------------------------------------------------------------------
  Methods described in the following list of references were used in this FHI-aims run.
  If you publish the results, please make sure to cite these reference if they apply.
  FHI-aims is an academic code, and for our developers (often, Ph.D. students
  and postdocs), scientific credit in the community is essential.
  Thank you for helping us!

  For any use of FHI-aims, please cite:

    Volker Blum, Ralf Gehrke, Felix Hanke, Paula Havu, Ville Havu,
    Xinguo Ren, Karsten Reuter, and Matthias Scheffler
    'Ab initio molecular simulations with numeric atom-centered orbitals'
    Computer Physics Communications 180, 2175-2196 (2009)
    http://dx.doi.org/10.1016/j.cpc.2009.06.022


  For the analytical stress tensor used in your run, please cite:

    Franz Knuth, Christian Carbogno, Viktor Atalla, Volker Blum, Matthias Scheffler
    'All-electron formalism for total energy strain derivatives and
    stress tensor components for numeric atom-centered orbitals'
    Computer Physics Communications 190, 33-50 (2015).
    http://dx.doi.org/10.1016/j.cpc.2015.01.003


  The provided symmetry information was generated with SPGlib:

    Atsushi Togo, Yusuke Seto, Dimitar Pashov
    SPGlib 1.7.3 obtained from http://spglib.sourceforge.net
    Copyright (C) 2008 Atsushi Togo


  The ELSI infrastructure was used in your run to solve the Kohn-Sham electronic structure.
  Please check out http://elsi-interchange.org to learn more.
  If scalability is important for your project, please acknowledge ELSI by citing:

    V. W-z. Yu, F. Corsetti, A. Garcia, W. P. Huhn, M. Jacquelin, W. Jia,
    B. Lange, L. Lin, J. Lu, W. Mi, A. Seifitokaldani, A. Vazquez-Mayagoitia,
    C. Yang, H. Yang, and V. Blum
    'ELSI: A unified software interface for Kohn-Sham electronic structure solvers'
    Computer Physics Communications 222, 267-285 (2018).
    http://dx.doi.org/10.1016/j.cpc.2017.09.007


  For the real-space grid partitioning and parallelization used in this calculation, please cite:

    Ville Havu, Volker Blum, Paula Havu, and Matthias Scheffler,
    'Efficient O(N) integration for all-electron electronic structure calculation'
    'using numerically tabulated basis functions'
    Journal of Computational Physics 228, 8367-8379 (2009).
    http://dx.doi.org/10.1016/j.jcp.2009.08.008

  Of course, there are many other important community references, e.g., those cited in the
  above references. Our list is limited to references that describe implementations in the
  FHI-aims code. The reason is purely practical (length of this list) - please credit others as well.

------------------------------------------------------------
          Leaving FHI-aims.
          Date     :  20211125, Time     :  090207.562

          Computational steps:
          | Number of self-consistency cycles          :           80
          | Number of SCF (re)initializations          :            9
          | Number of relaxation steps                 :            7

          Detailed time accounting                     :  max(cpu_time)    wall_clock(cpu1)
          | Total time                                 :      169.992 s         171.791 s
          | Preparation time                           :        0.156 s           0.158 s
          | Boundary condition initalization           :        0.577 s           0.579 s
          | Grid partitioning                          :        0.229 s           0.231 s
          | Preloading free-atom quantities on grid    :        0.799 s           0.804 s
          | Free-atom superposition energy             :        0.127 s           0.125 s
          | Total time for integrations                :       26.261 s          26.317 s
          | Total time for solution of K.-S. equations :        1.303 s           1.304 s
          | Total time for EV reorthonormalization     :        0.030 s           0.033 s
          | Total time for density & force components  :      108.685 s         109.489 s
          | Total time for mixing & preconditioning    :        1.285 s           1.287 s
          | Total time for Hartree multipole update    :        0.095 s           0.111 s
          | Total time for Hartree multipole sum       :       23.634 s          23.855 s
          | Total time for total energy evaluation     :        0.006 s           0.008 s
          | Total time NSC force correction            :        7.046 s           7.115 s
          | Total time for scaled ZORA corrections     :        0.000 s           0.000 s

          Partial memory accounting:
          | Residual value for overall tracked memory usage across tasks:     0.000000 MB (should be 0.000000 MB)
          | Peak values for overall tracked memory usage:
          |   Minimum:       13.990 MB (on task 3 after allocating d_wave)
          |   Maximum:       14.738 MB (on task 0 after allocating d_wave)
          |   Average:       14.324 MB
          | Largest tracked array allocation:
          |   Minimum:        3.922 MB (density_matrix_con on task 1)
          |   Maximum:        4.257 MB (density_matrix_con on task 0)
          |   Average:        4.061 MB
          Note:  These values currently only include a subset of arrays which are explicitly tracked.
          The "true" memory usage will be greater.

          Have a nice day.
------------------------------------------------------------
