------------------------------------------------------------
          Invoking FHI-aims ...

          When using FHI-aims, please cite the following reference:

            Volker Blum, Ralf Gehrke, Felix Hanke, Paula Havu,
            Ville Havu, Xinguo Ren, Karsten Reuter, and Matthias Scheffler,
            'Ab Initio Molecular Simulations with Numeric Atom-Centered Orbitals',
            Computer Physics Communications 180, 2175-2196 (2009)

          In addition, many other developments in FHI-aims are likely important for
          your particular application. A partial list of references is given at the end of
          this file. Thank you for giving credit to the authors of these developments.

          For any questions about FHI-aims, please visit our slack channel at

            https://fhi-aims.slack.com

          and our main development and support site at

            https://aims-git.rz-berlin.mpg.de .

          The latter site, in particular, has a wiki to collect information, as well
          as an issue tracker to log discussions, suggest improvements, and report issues
          or bugs. https://aims-git.rz-berlin.mpg.de is also the main development site
          of the project and all new and updated code versions can be obtained there.
          Please send an email to aims-coordinators@fhi-berlin.mpg.de and we will add
          you to these sites. They are for you and everyone is welcome there.

------------------------------------------------------------



  Date     :  20211124, Time     :  193218.346
  Time zero on CPU 1             :   0.300510000000000E-01  s.
  Internal wall clock time zero  :           407014338.346  s.

  FHI-aims created a unique identifier for this run for later identification
  aims_uuid : 31E3CD3A-7EED-42FF-A06B-6A69F9532391

  Build configuration of the current instance of FHI-aims
  -------------------------------------------------------
  FHI-aims version      : 210513
  Commit number         : cae7accea
  CMake host system     : Linux-4.15.0-43-generic
  CMake version         : 3.10.2
  Fortran compiler      : /home/purcell/intel/oneapi/mpi/2021.1-beta10/bin/mpiifort (Intel) version 20.2.1.20200827
  Fortran compiler flags: -O3 -ip -fp-model precise
  C compiler            : /home/purcell/intel/oneapi/compiler/2021.1-beta10/linux/bin/intel64/icc (Intel) version 20.2.1.20200827
  C compiler flags      : -O3 -ip -fp-model precise -std=gnu99
  C++ compiler          : /usr/bin/c++ (GNU) version 7.5.0
  C++ compiler flags    :
  ELPA2 kernel          : AVX2
  Using MPI
  Using ScaLAPACK
  Using LibXC
  Using i-PI
  Using RLSY
  Linking against: /home/purcell/intel/oneapi/mkl/2021.1-beta10/lib/intel64/libmkl_scalapack_lp64.so
                   /home/purcell/intel/oneapi/mkl/2021.1-beta10/lib/intel64/libmkl_blacs_intelmpi_lp64.so
                   /home/purcell/intel/oneapi/mkl/2021.1-beta10/lib/intel64/libmkl_intel_lp64.so
                   /home/purcell/intel/oneapi/mkl/2021.1-beta10/lib/intel64/libmkl_sequential.so
                   /home/purcell/intel/oneapi/mkl/2021.1-beta10/lib/intel64/libmkl_core.so

  Using        4 parallel tasks.
  Task        0 on host theobook reporting.
  Task        1 on host theobook reporting.
  Task        2 on host theobook reporting.
  Task        3 on host theobook reporting.

  Performing system and environment tests:
  *** Environment variable OMP_NUM_THREADS is set to 
  2
  *** For performance reasons you might want to set it to 1
  | Checking for ScaLAPACK...
  | Testing pdtran()...
  | All pdtran() tests passed.

  Obtaining array dimensions for all initial allocations:
  
  -----------------------------------------------------------------------
  Parsing control.in (first pass over file, find array dimensions only).
  The contents of control.in will be repeated verbatim below
  unless switched off by setting 'verbatim_writeout .false.' .
  in the first line of control.in .
  -----------------------------------------------------------------------
  
  #===============================================================================
  # FHI-aims file: ./control.in
  # Created using the Atomic Simulation Environment (ASE)
  # Wed Nov 24 19:32:18 2021
  #===============================================================================
  xc                                 pw-lda
  sc_accuracy_rho                    1e-06
  relativistic                       atomic_zora scalar
  output_level                       MD_light
  compute_forces                     .true.
  use_pimd_wrapper                   localhost 12345
  #===============================================================================
  
  ################################################################################
  #
  #  FHI-aims code project
  #  VB, Fritz-Haber Institut, 2009
  #
  #  Suggested "light" defaults for O atom (to be pasted into control.in file)
  #  Be sure to double-check any results obtained with these settings for post-processing,
  #  e.g., with the "tight" defaults and larger basis sets.
  #
  ################################################################################
    species        O
  #     global species definitions
      nucleus             8
      mass                15.9994
  #
      l_hartree           4
  #
      cut_pot             3.5  1.5  1.0
      basis_dep_cutoff    1e-4
  #
      radial_base         36 5.0
      radial_multiplier   1
       angular_grids specified
        division   0.2659   50
        division   0.4451  110
        division   0.6052  194
        division   0.7543  302
  #      division   0.8014  434
  #      division   0.8507  590
  #      division   0.8762  770
  #      division   0.9023  974
  #      division   1.2339 1202
  #      outer_grid 974
        outer_grid 302
  ################################################################################
  #
  #  Definition of "minimal" basis
  #
  ################################################################################
  #     valence basis states
      valence      2  s   2.
      valence      2  p   4.
  #     ion occupancy
      ion_occ      2  s   1.
      ion_occ      2  p   3.
  ################################################################################
  #
  #  Suggested additional basis functions. For production calculations,
  #  uncomment them one after another (the most important basis functions are
  #  listed first).
  #
  #  Constructed for dimers: 1.0 A, 1.208 A, 1.5 A, 2.0 A, 3.0 A
  #
  ################################################################################
  #  "First tier" - improvements: -699.05 meV to -159.38 meV
       hydro 2 p 1.8
       hydro 3 d 7.6
       hydro 3 s 6.4
  #  "Second tier" - improvements: -49.91 meV to -5.39 meV
  #     hydro 4 f 11.6
  #     hydro 3 p 6.2
  #     hydro 3 d 5.6
  #     hydro 5 g 17.6
  #     hydro 1 s 0.75
  #  "Third tier" - improvements: -2.83 meV to -0.50 meV
  #     ionic 2 p auto
  #     hydro 4 f 10.8
  #     hydro 4 d 4.7
  #     hydro 2 s 6.8
  #  "Fourth tier" - improvements: -0.40 meV to -0.12 meV
  #     hydro 3 p 5
  #     hydro 3 s 3.3
  #     hydro 5 g 15.6
  #     hydro 4 f 17.6
  #     hydro 4 d 14
  # Further basis functions - -0.08 meV and below
  #     hydro 3 s 2.1
  #     hydro 4 d 11.6
  #     hydro 3 p 16
  #     hydro 2 s 17.2
  ################################################################################
  #
  #  FHI-aims code project
  #  VB, Fritz-Haber Institut, 2009
  #
  #  Suggested "light" defaults for H atom (to be pasted into control.in file)
  #  Be sure to double-check any results obtained with these settings for post-processing,
  #  e.g., with the "tight" defaults and larger basis sets.
  #
  ################################################################################
    species        H
  #     global species definitions
      nucleus             1
      mass                1.00794
  #
      l_hartree           4
  #
      cut_pot             3.5  1.5  1.0
      basis_dep_cutoff    1e-4
  #
      radial_base         24 5.0
      radial_multiplier   1
      angular_grids       specified
        division   0.2421   50
        division   0.3822  110
        division   0.4799  194
        division   0.5341  302
  #      division   0.5626  434
  #      division   0.5922  590
  #      division   0.6542  770
  #      division   0.6868 1202
  #      outer_grid  770
        outer_grid  302
  ################################################################################
  #
  #  Definition of "minimal" basis
  #
  ################################################################################
  #     valence basis states
      valence      1  s   1.
  #     ion occupancy
      ion_occ      1  s   0.5
  ################################################################################
  #
  #  Suggested additional basis functions. For production calculations,
  #  uncomment them one after another (the most important basis functions are
  #  listed first).
  #
  #  Basis constructed for dimers: 0.5 A, 0.7 A, 1.0 A, 1.5 A, 2.5 A
  #
  ################################################################################
  #  "First tier" - improvements: -1014.90 meV to -62.69 meV
       hydro 2 s 2.1
       hydro 2 p 3.5
  #  "Second tier" - improvements: -12.89 meV to -1.83 meV
  #     hydro 1 s 0.85
  #     hydro 2 p 3.7
  #     hydro 2 s 1.2
  #     hydro 3 d 7
  #  "Third tier" - improvements: -0.25 meV to -0.12 meV
  #     hydro 4 f 11.2
  #     hydro 3 p 4.8
  #     hydro 4 d 9
  #     hydro 3 s 3.2
  
  -----------------------------------------------------------------------
  Completed first pass over input file control.in .
  -----------------------------------------------------------------------
  
  
  -----------------------------------------------------------------------
  Parsing geometry.in (first pass over file, find array dimensions only).
  The contents of geometry.in will be repeated verbatim below
  unless switched off by setting 'verbatim_writeout .false.' .
  in the first line of geometry.in .
  -----------------------------------------------------------------------
  
  #=======================================================
  # FHI-aims file: ./geometry.in
  # Created using the Atomic Simulation Environment (ASE)
  # Wed Nov 24 19:32:18 2021
  #=======================================================
  atom 0.0000000000000000 0.0000000000000000 0.0000000000000000 O
      velocity 0.0000000000000000 0.0000000000000000 0.0000000000000000
  atom 0.9584000000000000 0.0000000000000000 0.0000000000000000 H
      velocity 0.0000000000000000 0.0000000000000000 0.0000000000000000
  atom -0.2400000000000000 0.9278999999999999 0.0000000000000000 H
      velocity 0.0000000000000000 0.0000000000000000 0.0000000000000000
  
  -----------------------------------------------------------------------
  Completed first pass over input file geometry.in .
  -----------------------------------------------------------------------
  

  Basic array size parameters:
  | Number of species                 :        2
  | Number of atoms                   :        3
  | Max. basis fn. angular momentum   :        2
  | Max. atomic/ionic basis occupied n:        2
  | Max. number of basis fn. types    :        2
  | Max. radial fns per species/type  :        3
  | Max. logarithmic grid size        :     1301
  | Max. radial integration grid size :       36
  | Max. angular integration grid size:      302
  | Max. angular grid division number :        8
  | Radial grid for Hartree potential :     1301
  | Number of spin channels           :        1

------------------------------------------------------------
          Reading file control.in.
------------------------------------------------------------
  XC: Using Perdew-Wang parametrisation of Ceperley-Alder LDA.
  Convergence accuracy of self-consistent charge density:  0.1000E-05
  Scalar relativistic treatment of kinetic energy: on-site free-atom approximation to ZORA.
  Requested output level: MD_light
  Forces will be computed.
  Using external wrapper (i-PI) for performing (path integral) molecular dynamics
  **Attention: initial geometry.in file will be ignored!
 
  Reading configuration options for species O                   .
  | Found nuclear charge :   8.0000
  | Found atomic mass :    15.9994000000000      amu
  | Found l_max for Hartree potential  :   4
  | Found cutoff potl. onset [A], width [A], scale factor :    3.50000    1.50000    1.00000
  | Threshold for basis-dependent cutoff potential is   0.100000E-03
  | Found data for basic radial integration grid :    36 points, outermost radius =    5.000 A
  | Found multiplier for basic radial grid :   1
  | Found angular grid specification: user-specified.
  | Specified grid contains     5 separate shells.
  | Check grid settings after all constraints further below.
  | Found free-atom valence shell :  2 s   2.000
  | Found free-atom valence shell :  2 p   4.000
  | No ionic wave fns used. Skipping ion_occ.
  | No ionic wave fns used. Skipping ion_occ.
  | Found hydrogenic basis function :  2 p   1.800
  | Found hydrogenic basis function :  3 d   7.600
  | Found hydrogenic basis function :  3 s   6.400
  Species O                   : Missing cutoff potential type.
  Defaulting to exp(1/x)/(1-x)^2 type cutoff potential.
  Species O : No 'logarithmic' tag. Using default grid for free atom:
  | Default logarithmic grid data [bohr] : 0.1000E-03 0.1000E+03 0.1012E+01
  Species O : On-site basis accuracy parameter (for Gram-Schmidt orthonormalisation) not specified.
  Using default value basis_acc =  0.1000000E-03.
  Species O                   : Using default innermost maximum threshold i_radial=  2 for radial functions.
  Species O                   : Default cutoff onset for free atom density etc. : 0.35000000E+01 AA.
  Species O                   : Basic radial grid will be enhanced according to radial_multiplier =   1, to contain    36 grid points.
 
  Reading configuration options for species H                   .
  | Found nuclear charge :   1.0000
  | Found atomic mass :    1.00794000000000      amu
  | Found l_max for Hartree potential  :   4
  | Found cutoff potl. onset [A], width [A], scale factor :    3.50000    1.50000    1.00000
  | Threshold for basis-dependent cutoff potential is   0.100000E-03
  | Found data for basic radial integration grid :    24 points, outermost radius =    5.000 A
  | Found multiplier for basic radial grid :   1
  | Found angular grid specification: user-specified.
  | Specified grid contains     5 separate shells.
  | Check grid settings after all constraints further below.
  | Found free-atom valence shell :  1 s   1.000
  | No ionic wave fns used. Skipping ion_occ.
  | Found hydrogenic basis function :  2 s   2.100
  | Found hydrogenic basis function :  2 p   3.500
  Species H                   : Missing cutoff potential type.
  Defaulting to exp(1/x)/(1-x)^2 type cutoff potential.
  Species H : No 'logarithmic' tag. Using default grid for free atom:
  | Default logarithmic grid data [bohr] : 0.1000E-03 0.1000E+03 0.1012E+01
  Species H : On-site basis accuracy parameter (for Gram-Schmidt orthonormalisation) not specified.
  Using default value basis_acc =  0.1000000E-03.
  Species H                   : Using default innermost maximum threshold i_radial=  2 for radial functions.
  Species H                   : Default cutoff onset for free atom density etc. : 0.35000000E+01 AA.
  Species H                   : Basic radial grid will be enhanced according to radial_multiplier =   1, to contain    24 grid points.
 
  Finished reading input file 'control.in'.
 
------------------------------------------------------------


------------------------------------------------------------
          Reading geometry description geometry.in.
------------------------------------------------------------
  * WARNING: Ignoring velocity specification in geometry.in without MD request.
  * WARNING: Ignoring velocity specification in geometry.in without MD request.
  * WARNING: Ignoring velocity specification in geometry.in without MD request.
  | The smallest distance between any two atoms is         0.95840000 AA.
  | The first atom of this pair is atom number                      1 .
  | The second atom of this pair is atom number                     2 .
  Input structure read successfully.
  The structure contains        3 atoms,  and a total of         10.000 electrons.

  Input geometry:
  | No unit cell requested.
  | Atomic structure:
  |       Atom                x [A]            y [A]            z [A]
  |    1: Species O             0.00000000        0.00000000        0.00000000
  |    2: Species H             0.95840000        0.00000000        0.00000000
  |    3: Species H            -0.24000000        0.92790000        0.00000000

 
  Finished reading input file 'control.in'.
 

------------------------------------------------------------
          Reading geometry description geometry.in.
------------------------------------------------------------
 
  Consistency checks for stacksize environment parameter are next.
 
  | Maximum stacksize for task 0: unlimited
  | Maximum stacksize for task 1: unlimited
  | Maximum stacksize for task 2: unlimited
  | Maximum stacksize for task 3: unlimited
  | Current stacksize for task 0: unlimited
  | Current stacksize for task 1: unlimited
  | Current stacksize for task 2: unlimited
  | Current stacksize for task 3: unlimited
 
  Consistency checks for the contents of control.in are next.
 
  MPI_IN_PLACE appears to work with this MPI implementation.
  | Keeping use_mpi_in_place .true. (see manual).
  Target number of points in a grid batch is not set. Defaulting to  100
  Method for grid partitioning is not set. Defaulting to parallel hash+maxmin partitioning.
  Batch size limit is not set. Defaulting to    200
  By default, will store active basis functions for each batch.
  If in need of memory, prune_basis_once .false. can be used to disable this option.
  communication_type for Hartree potential was not specified.
  Defaulting to calc_hartree .
  Defaulting to Pulay charge density mixer.
  Pulay mixer: Number of relevant iterations not set.
  Defaulting to    8 iterations.
  Pulay mixer: Number of initial linear mixing iterations not set.
  Defaulting to    0 iterations.
  Work space size for distributed Hartree potential not set.
  Defaulting to   0.200000E+03 MB.
  Mixing parameter for charge density mixing has not been set.
  Using default: charge_mix_param =     0.0500.
  The mixing parameter will be adjusted in iteration number     2 of the first full s.c.f. cycle only.
  Algorithm-dependent basis array size parameters:
  | n_max_pulay                         :        8
  Maximum number of self-consistency iterations not provided.
  Presetting  1000 iterations.
  Presetting      1001 iterations before the initial mixing cycle
  is restarted anyway using the sc_init_iter criterion / keyword.
  Presetting a factor      1.000 between actual scf density residual
  and density convergence criterion sc_accuracy_rho below which sc_init_iter
  takes no effect.
  Geometry relaxation not requested: no relaxation will be performed.
  Forces evaluation will include force correction term due to incomplete self-consistency (default).
  Force calculation: scf convergence accuracy of forces not set.
  Defaulting to 'sc_accuracy_forces not_checked'.
  Handling of forces: Unphysical translation and rotation will be removed from forces.
  No accuracy limit for integral partition fn. given. Defaulting to  0.1000E-14.
  No threshold value for u(r) in integrations given. Defaulting to  0.1000E-05.
  No occupation type (smearing scheme) given. Defaulting to Gaussian broadening, width =  0.1000E-01 eV.
  The width will be adjusted in iteration number     2 of the first full s.c.f. cycle only.
  S.C.F. convergence parameters will be adjusted in iteration number     2 of the first full s.c.f. cycle only.
  No accuracy for occupation numbers given. Defaulting to  0.1000E-12.
  No threshold value for occupation numbers given. Defaulting to  0.0000E+00.
  No accuracy for fermi level given. Defaulting to  0.1000E-19.
  Maximum # of iterations to find E_F not set. Defaulting to  200.
  Preferred method for the eigenvalue solver ('KS_method') not specified in 'control.in'.
  Calling BLACS routine to test compilation state
  Since ScaLAPACK support is enabled, defaulting to ELPA (via ELSI).
  Will not use alltoall communication since running on < 1024 CPUs.
  Threshold for basis singularities not set.
  Default threshold for basis singularities:  0.1000E-04
  partition_type (choice of integration weights) for integrals was not specified.
  | Using a version of the partition function of Stratmann and coworkers ('stratmann_sparse').
  | At each grid point, the set of atoms used to build the partition table is smoothly restricted to
  | only those atoms whose free-atom density would be non-zero at that grid point.
  Partitioning for Hartree potential was not defined. Using partition_type for integrals.
  | Adjusted default value of keyword multip_moments_threshold to:       0.10000000E-11
  | This value may affect high angular momentum components of the Hartree potential in periodic systems.
  Spin handling was not defined in control.in. Defaulting to unpolarized case.
  No q(lm)/r^(l+1) cutoff set for long-range Hartree potential.
  | Using default value of  0.100000E-09 .
  | Verify using the multipole_threshold keyword.
  Defaulting to new monopole extrapolation.
  Density update method: automatic selection selected.
  Charge integration errors on the 3D integration grid will be compensated
  by explicit normalization and distribution of residual charges.
  Use the "compensate_multipole_errors" flag to change this behaviour.
  Set 'collect_eigenvectors' to be '.true.' for use_density_matrix .false.
 
  Consistency checks for the contents of geometry.in are next.
 
  Number of empty states per atom not set in control.in - providing a guess from actual geometry.
  | Total number of empty states used during s.c.f. cycle:        6
  If you use a very high smearing, use empty_states (per atom!) in control.in to increase this value.

  Structure-dependent array size parameters: 
  | Maximum number of distinct radial functions  :        9
  | Maximum number of basis functions            :       24
  | Number of Kohn-Sham states (occupied + empty):       11
------------------------------------------------------------

************************** W A R N I N G *******************************
* You are using the PIMD wrapper. Specifications and positions         *
* in geometry.in will be IGNORED - all is received from the wrapper.   *
* Please make sure species are declared in the same order in           *
* geometry.in and wrapper input.                                       *
************************************************************************


------------------------------------------------------------
          Preparing all fixed parts of the calculation.
------------------------------------------------------------
  Determining machine precision:
    2.225073858507201E-308
  Setting up grids for atomic and cluster calculations.

  Creating wave function, potential, and density for free atoms.

  Species: O

  List of occupied orbitals and eigenvalues:
    n    l              occ      energy [Ha]    energy [eV]
    1    0           2.0000       -18.786109      -511.1960
    2    0           2.0000        -0.872635       -23.7456
    2    1           4.0000        -0.337687        -9.1889


  Species: H

  List of occupied orbitals and eigenvalues:
    n    l              occ      energy [Ha]    energy [eV]
    1    0           1.0000        -0.232378        -6.3233


  Adding cutoff potential to free-atom effective potential.
  Creating fixed part of basis set: Ionic, confined, hydrogenic.
 
  O                    hydrogenic:
 
  List of hydrogenic basis orbitals: 
    n    l      effective z      eigenvalue [eV]  inner max. [A]     outer max. [A]     outer radius [A]   
    2    1         1.800000       -10.9749           1.164242           1.164242           4.578029
    3    2         7.600000       -87.3180           0.624125           0.624125           3.251020
    3    0         6.400000       -61.9207           0.061167           1.081902           4.001998
 
 
  H                    hydrogenic:
 
  List of hydrogenic basis orbitals: 
    n    l      effective z      eigenvalue [eV]  inner max. [A]     outer max. [A]     outer radius [A]   
    2    0         2.100000       -14.9728           0.193243           1.317208           4.583499
    2    1         3.500000       -41.6669           0.602369           0.602369           3.723403
 
  Creating atomic-like basis functions for current effective potential.

  Species O                   :

  List of atomic basis orbitals and eigenvalues:
    n    l      energy [Ha]    energy [eV]    outer radius [A]
    1    0       -18.786109      -511.1960       1.433179
    2    0        -0.872635       -23.7456       4.413171
    2    1        -0.337687        -9.1889       4.522403


  Species H                   :

  List of atomic basis orbitals and eigenvalues:
    n    l      energy [Ha]    energy [eV]    outer radius [A]
    1    0        -0.232378        -6.3233       4.527807

  Assembling full basis from fixed parts.
  | Species O :   atomic orbital   1 s accepted.
  | Species O :    hydro orbital   3 s accepted.
  | Species O :   atomic orbital   2 s accepted.
  | Species O :   atomic orbital   2 p accepted.
  | Species O :    hydro orbital   2 p accepted.
  | Species O :    hydro orbital   3 d accepted.
  | Species H :   atomic orbital   1 s accepted.
  | Species H :    hydro orbital   2 s accepted.
  | Species H :    hydro orbital   2 p accepted.
 
  Basis size parameters after reduction:
  | Total number of radial functions:        9
  | Total number of basis functions :       24
 
  Per-task memory consumption for arrays in subroutine allocate_ext:
  |           2.998708MB.
  Testing on-site integration grid accuracy.
  |  Species  Function  <phi|h_atom|phi> (log., in eV)  <phi|h_atom|phi> (rad., in eV)
           1        1               -511.1960429777               -511.1959399133
           1        2                 14.8973166466                 14.8974402823
           1        3                -21.2682165807                -21.2682317485
           1        4                 -9.1890598667                 -9.1892026751
           1        5                  8.1915160719                  8.1720639763
           1        6                 45.8005976646                 45.8005620229
           2        7                 -6.3246251765                 -6.3233331181
           2        8                 14.1313906092                 14.1372326594
           2        9                 25.3615426212                 25.3616852158

  Preparing densities etc. for the partition functions (integrals / Hartree potential).

  Preparations completed.
  max(cpu_time)          :      0.078 s.
  Wall clock time (cpu1) :      0.077 s.
------------------------------------------------------------

************************** W A R N I N G *******************************
* Skipping the SCF initialization for now - done inside wrapper      *
************************************************************************

  @ DRIVER MODE: Connecting to host:port localhost       12345
  @ DRIVER MODE: Message from server: STATUS      
  @ DRIVER MODE: Message from server: POSDATA     
  @ DRIVER MODE: Received positions 

------------------------------------------------------------
          Begin self-consistency loop: Initialization.

          Date     :  20211124, Time     :  193218.521
------------------------------------------------------------

  Initializing index lists of integration centers etc. from given atomic structure:
  | Number of centers in hartree potential         :         3
  | Number of centers in hartree multipole         :         3
  | Number of centers in electron density summation:         3
  | Number of centers in basis integrals           :         3
  | Number of centers in integrals                 :         3
  | Number of centers in hamiltonian               :         3
  * Using 4 tasks for Scalapack Eigenvalue solver.
  Detailed listing of tasks and assigned k-points:
  (for non-periodic systems, the "k-point" denotes an internal label only)
   Task     0 k-point     1 on theobook
   Task     1 k-point     1 on theobook
   Task     2 k-point     1 on theobook
   Task     3 k-point     1 on theobook
  Tasks:     4 split into      2 X      2 BLACS grid
  Calculating block size based on n_basis =           24  max_nprow =            2  max_npcol =            2
  ScaLAPACK block size set to:            8
  Allocating        0.002 MB for ovlp
  Allocating        0.002 MB for ham
  Allocating        0.002 MB for eigenvec
  Required Scalapack workspace - INTEGER:            1  REAL:             1
  Partitioning the integration grid into batches with parallel hashing+maxmin method.
  | Number of batches:      224
  | Maximal batch size:      88
  | Minimal batch size:      57
  | Average batch size:      71.089
  | Standard deviation of batch sizes:       7.975

  Integration load balanced across     4 MPI tasks.
  Work distribution over tasks is as follows:
  Task     0 has       4015 integration points.
  Task     1 has       3983 integration points.
  Task     2 has       3982 integration points.
  Task     3 has       3944 integration points.
  Initializing partition tables, free-atom densities, potentials, etc. across the integration grid (initialize_grid_storage).
  | initialize_grid_storage: Actual outermost partition radius vs. multipole_radius_free
  | (-- VB: in principle, multipole_radius_free should be larger, hence this output)
  | Species        1: Confinement radius =              4.999999999999999 AA, multipole_radius_free =              5.048384829883283 AA.
  | Species        1: outer_partition_radius set to              5.048384829883283 AA .
  | Species        2: Confinement radius =              4.999999999999999 AA, multipole_radius_free =              5.054417573612229 AA.
  | Species        2: outer_partition_radius set to              5.054417573612229 AA .
  | The sparse table of interatomic distances needs          0.09 kbyte instead of         0.07 kbyte of memory.
  | Using the partition_type stratmann_smoother will reduce your memory usage.
  | Net number of integration points:    15924
  | of which are non-zero points    :    14477
  Renormalizing the initial density to the exact electron count on the 3D integration grid.
  | Initial density: Formal number of electrons (from input files) :      10.0000000000
  | Integrated number of electrons on 3D grid     :       9.9999369396
  | Charge integration error                      :      -0.0000630604
  | Normalization factor for density and gradient :       1.0000063061
  Renormalizing the free-atom superposition density to the exact electron count on the 3D integration grid.
  | Formal number of electrons (from input files) :      10.0000000000
  | Integrated number of electrons on 3D grid     :       9.9999369396
  | Charge integration error                      :      -0.0000630604
  | Normalization factor for density and gradient :       1.0000063061
  Obtaining max. number of non-zero basis functions in each batch (get_n_compute_maxes).
  | Maximal number of non-zero basis functions:       24 in task     0
  | Maximal number of non-zero basis functions:       24 in task     1
  | Maximal number of non-zero basis functions:       24 in task     2
  | Maximal number of non-zero basis functions:       24 in task     3
  Selecting the method for density update.
  Loop over occupied states selected for charge density update.
  Allocating        0.002 MB for KS_eigenvector
  Integrating Hamiltonian matrix: batch-based integration.
  Time summed over all CPUs for integration: real work        0.020 s, elapsed        0.021 s
  Integrating overlap matrix.
  Time summed over all CPUs for integration: real work        0.010 s, elapsed        0.011 s
  Deallocating overlap matrix.

  Updating Kohn-Sham eigenvalues and eigenvectors using ELSI and the ELPA eigensolver.

  Obtaining occupation numbers and chemical potential using ELSI.
  | Chemical potential (Fermi level):    -2.59158517 eV
  Writing Kohn-Sham eigenvalues.

  State    Occupation    Eigenvalue [Ha]    Eigenvalue [eV]
      1       2.00000         -18.902628         -514.36669
      2       2.00000          -1.104933          -30.06677
      3       2.00000          -0.643486          -17.51014
      4       2.00000          -0.520673          -14.16822
      5       2.00000          -0.451426          -12.28392
      6       0.00000          -0.054392           -1.48009
      7       0.00000           0.028594            0.77809
      8       0.00000           0.206923            5.63067
      9       0.00000           0.236283            6.42958
     10       0.00000           0.292273            7.95316
     11       0.00000           0.511451           13.91729

  Highest occupied state (VBM) at    -12.28392263 eV
  | Occupation number:      2.00000000

  Lowest unoccupied state (CBM) at    -1.48008792 eV
  | Occupation number:      0.00000000

  Overall HOMO-LUMO gap:     10.80383471 eV.
  Calculating total energy contributions from superposition of free atom densities.

  Total energy components:
  | Sum of eigenvalues            :         -43.24629230 Ha       -1176.79148786 eV
  | XC energy correction          :          -8.51756845 Ha        -231.77483013 eV
  | XC potential correction       :          11.21917906 Ha         305.28939515 eV
  | Free-atom electrostatic energy:         -35.52816823 Ha        -966.77064629 eV
  | Hartree energy correction     :           0.00000000 Ha           0.00000000 eV
  | Entropy correction            :           0.00000000 Ha           0.00000000 eV
  | ---------------------------
  | Total energy                  :         -76.07284992 Ha       -2070.04756913 eV
  | Total energy, T -> 0          :         -76.07284992 Ha       -2070.04756913 eV  <-- do not rely on this value for anything but (periodic) metals
  | Electronic free energy        :         -76.07284992 Ha       -2070.04756913 eV

  Derived energy quantities:
  | Kinetic energy                :          75.05966974 Ha        2042.47753374 eV
  | Electrostatic energy          :        -142.61495121 Ha       -3880.75027274 eV
  | Energy correction for multipole
  | error in Hartree potential    :           0.00000000 Ha           0.00000000 eV
  | Sum of eigenvalues per atom                           :        -392.26382929 eV
  | Total energy (T->0) per atom                          :        -690.01585638 eV  <-- do not rely on this value for anything but (periodic) metals
  | Electronic free energy per atom                       :        -690.01585638 eV
  Initialize hartree_potential_storage
  Max. number of atoms included in rho_multipole:            3

  End scf initialization - timings             :  max(cpu_time)    wall_clock(cpu1)
  | Time for scf. initialization               :        0.023 s           0.023 s
  | Boundary condition initialization          :        0.000 s           0.000 s
  | Integration                                :        0.008 s           0.009 s
  | Solution of K.-S. eqns.                    :        0.002 s           0.001 s
  | Grid partitioning                          :        0.006 s           0.005 s
  | Preloading free-atom quantities on grid    :        0.004 s           0.004 s
  | Free-atom superposition energy             :        0.003 s           0.003 s
  | Total energy evaluation                    :        0.000 s           0.000 s

  Partial memory accounting:
  | Current value for overall tracked memory usage:
  |   Minimum:        0.006 MB (on task 3)
  |   Maximum:        0.010 MB (on task 0)
  |   Average:        0.008 MB
  | Peak value for overall tracked memory usage:
  |   Minimum:        0.073 MB (on task 3 after allocating grid_partition)
  |   Maximum:        0.180 MB (on task 0 after allocating grid_partition)
  |   Average:        0.140 MB
  | Largest tracked array allocation so far:
  |   Minimum:        0.047 MB (all_coords on task 3)
  |   Maximum:        0.116 MB (all_coords on task 0)
  |   Average:        0.091 MB
  Note:  These values currently only include a subset of arrays which are explicitly tracked.
  The "true" memory usage will be greater.
------------------------------------------------------------
  Time for density update prior                :  max(cpu_time)    wall_clock(cpu1)
  | self-consistency iterative process         :        0.003 s           0.003 s
------------------------------------------------------------
Convergence:    q app. |  density  | eigen (eV) | Etot (eV) | forces (eV/A) |       CPU time |     Clock time
  SCF    1 :  0.99E-15 |  0.32E+00 |   0.66E+01 |  0.52E+00 |             . |        0.014 s |        0.015 s
  SCF    2 :  0.26E-13 |  0.28E+00 |   0.38E+02 |  0.16E+01 |             . |        0.016 s |        0.016 s
  SCF    3 :  0.20E-13 |  0.12E+00 |  -0.20E+02 | -0.50E+00 |             . |        0.015 s |        0.015 s
  SCF    4 : -0.13E-13 |  0.18E+00 |   0.22E+02 |  0.62E+00 |             . |        0.017 s |        0.018 s
  SCF    5 :  0.41E-13 |  0.35E-01 |   0.14E+00 |  0.13E-02 |             . |        0.015 s |        0.015 s
  SCF    6 :  0.17E-13 |  0.34E-01 |   0.41E+01 |  0.23E-01 |             . |        0.016 s |        0.016 s
  SCF    7 :  0.24E-13 |  0.10E-01 |   0.17E+01 |  0.22E-02 |             . |        0.016 s |        0.016 s
  SCF    8 :  0.67E-14 |  0.13E-03 |   0.68E-01 | -0.64E-05 |             . |        0.016 s |        0.016 s
  SCF    9 : -0.57E-14 |  0.37E-03 |  -0.66E-01 |  0.27E-05 |             . |        0.017 s |        0.017 s
  SCF   10 :  0.27E-13 |  0.22E-04 |  -0.68E-02 | -0.73E-07 |             . |        0.015 s |        0.016 s
  SCF   11 :  0.35E-13 |  0.21E-04 |   0.38E-02 |  0.27E-07 |             . |        0.016 s |        0.016 s
  SCF   12 :  0.40E-13 |  0.10E-05 |  -0.16E-03 |  0.73E-08 |             . |        0.016 s |        0.016 s
  SCF   13 :  0.12E-13 |  0.22E-06 |  -0.28E-04 |  0.66E-09 |             . |        0.019 s |        0.020 s
  SCF   14 :  0.33E-13 |  0.49E-08 |   0.15E-05 | -0.12E-09 |      0.77E+00 |        0.040 s |        0.040 s

  Total energy components:
  | Sum of eigenvalues            :         -41.31316851 Ha       -1124.18851317 eV
  | XC energy correction          :          -8.74520299 Ha        -237.96908118 eV
  | XC potential correction       :          11.51884212 Ha         313.44364190 eV
  | Free-atom electrostatic energy:         -35.52816823 Ha        -966.77064629 eV
  | Hartree energy correction     :          -1.92161519 Ha         -52.28980988 eV
  | Entropy correction            :           0.00000000 Ha           0.00000000 eV
  | ---------------------------
  | Total energy                  :         -75.98931280 Ha       -2067.77440862 eV
  | Total energy, T -> 0          :         -75.98931280 Ha       -2067.77440862 eV  <-- do not rely on this value for anything but (periodic) metals
  | Electronic free energy        :         -75.98931280 Ha       -2067.77440862 eV

  Derived energy quantities:
  | Kinetic energy                :          75.70328525 Ha        2059.99120283 eV
  | Electrostatic energy          :        -142.94739506 Ha       -3889.79653026 eV
  | Energy correction for multipole
  | error in Hartree potential    :          -0.00370124 Ha          -0.10071579 eV
  | Sum of eigenvalues per atom                           :        -374.72950439 eV
  | Total energy (T->0) per atom                          :        -689.25813621 eV  <-- do not rely on this value for anything but (periodic) metals
  | Electronic free energy per atom                       :        -689.25813621 eV
  Highest occupied state (VBM) at     -7.23221392 eV
  | Occupation number:      2.00000000

  Lowest unoccupied state (CBM) at     0.08020676 eV
  | Occupation number:      0.00000000

  Overall HOMO-LUMO gap:      7.31242068 eV.
  | Chemical Potential                          :    -0.30957819 eV

  Self-consistency cycle converged.

  Removing unitary transformations (pure translations, rotations) from forces on atoms.
  Atomic forces before filtering:
  | Net force on center of mass :   0.159568E-01  0.281464E-01  0.354314E-11 eV/A
  | Net torque on center of mass:  -0.109191E-11  0.848853E-12 -0.176820E-02 eV
  Atomic forces after filtering:
  | Net force on center of mass :   0.000000E+00 -0.892031E-16 -0.811297E-27 eV/A
  | Net torque on center of mass:  -0.351308E-27  0.583009E-27  0.708063E-16 eV

  Energy and forces in a compact form:
  | Total energy uncorrected      :         -0.206777440861817E+04 eV
  | Total energy corrected        :         -0.206777440861817E+04 eV  <-- do not rely on this value for anything but (periodic) metals
  | Electronic free energy        :         -0.206777440861817E+04 eV
  Total atomic forces (unitary forces cleaned) [eV/Ang]:
  |    1         -0.481289284665163E+00         -0.615051370384412E+00          0.811297123282653E-27
  |    2          0.762033585727896E+00         -0.942008578636939E-01         -0.973556547939183E-27
  |    3         -0.280744301062733E+00          0.709252228248106E+00         -0.649037698626122E-27

  Removing unitary transformations (pure translations, rotations) from forces on atoms.
  Atomic forces before filtering:
  | Net force on center of mass :   0.000000E+00 -0.892031E-16 -0.811297E-27 eV/A
  | Net torque on center of mass:  -0.351308E-27  0.583009E-27  0.708063E-16 eV
  Atomic forces after filtering:
  | Net force on center of mass :   0.446015E-16 -0.892031E-16  0.252202E-42 eV/A
  | Net torque on center of mass:  -0.445749E-43 -0.192154E-46  0.472042E-16 eV
  @ DRIVER - WARNING: the stress tensor will not be computed
 ------------------------------------------------------------------------
 Atomic structure that was used in the preceding time step of the wrapper
                         x [A]             y [A]             z [A]
            atom         0.00000000        0.00000000        0.00000000  O
            atom         0.95840000        0.00000000        0.00000000  H
            atom        -0.24000000        0.92790000        0.00000000  H
 ------------------------------------------------------------------------
  @ DRIVER MODE: Message from server: STATUS      
  @ DRIVER MODE: Message from server: GETFORCE    
  @ DRIVER MODE: Returning v,forces,stress 
  @ DRIVER MODE: Message from server: STATUS      
  @ DRIVER MODE: Message from server: INIT        
  @ DRIVER MODE: Receiving replica           0
  @ DRIVER MODE: Message from server: STATUS      
  @ DRIVER MODE: Message from server: POSDATA     
  @ DRIVER MODE: Received positions 

------------------------------------------------------------
          Begin self-consistency loop: Re-initialization.

  Date     :  20211124, Time     :  193218.937
------------------------------------------------------------

  Initializing index lists of integration centers etc. from given atomic structure:
  | Number of centers in hartree potential         :         3
  | Number of centers in hartree multipole         :         3
  | Number of centers in electron density summation:         3
  | Number of centers in basis integrals           :         3
  | Number of centers in integrals                 :         3
  | Number of centers in hamiltonian               :         3
  Partitioning the integration grid into batches with parallel hashing+maxmin method.
  Initializing partition tables, free-atom densities, potentials, etc. across the integration grid (initialize_grid_storage).
  | Species        1: outer_partition_radius set to              5.048384829883283 AA .
  | Species        2: outer_partition_radius set to              5.054417573612229 AA .
  | Net number of integration points:    15924
  | of which are non-zero points    :    14479
  Renormalizing the initial density to the exact electron count on the 3D integration grid.
  | Initial density: Formal number of electrons (from input files) :      10.0000000000
  | Integrated number of electrons on 3D grid     :       9.9999371492
  | Charge integration error                      :      -0.0000628508
  | Normalization factor for density and gradient :       1.0000062851
  Renormalizing the free-atom superposition density to the exact electron count on the 3D integration grid.
  | Formal number of electrons (from input files) :      10.0000000000
  | Integrated number of electrons on 3D grid     :       9.9999371492
  | Charge integration error                      :      -0.0000628508
  | Normalization factor for density and gradient :       1.0000062851
  Calculating total energy contributions from superposition of free atom densities.
  Initialize hartree_potential_storage
  Max. number of atoms included in rho_multipole:            3
  Integrating overlap matrix.
  Time summed over all CPUs for integration: real work        0.009 s, elapsed        0.009 s
  Normalizing  ScaLAPACK eigenvectors
  Deallocating overlap matrix.

  End scf reinitialization - timings           :  max(cpu_time)    wall_clock(cpu1)
  | Time for scf. reinitialization             :        0.014 s           0.013 s
  | Boundary condition initialization          :        0.000 s           0.000 s
  | Integration                                :        0.003 s           0.003 s
  | Grid partitioning                          :        0.005 s           0.005 s
  | Preloading free-atom quantities on grid    :        0.003 s           0.003 s
  | Free-atom superposition energy             :        0.002 s           0.002 s
  | K.-S. eigenvector reorthonormalization     :        0.000 s           0.000 s
------------------------------------------------------------
  Time for density update prior                :  max(cpu_time)    wall_clock(cpu1)
  | self-consistency iterative process         :        0.003 s           0.003 s
------------------------------------------------------------
Convergence:    q app. |  density  | eigen (eV) | Etot (eV) | forces (eV/A) |       CPU time |     Clock time
  SCF    1 : -0.74E-14 |  0.17E+00 |  -0.11E+04 | -0.21E+04 |             . |        0.018 s |        0.018 s
  SCF    2 :  0.26E-13 |  0.18E-02 |  -0.12E+00 |  0.32E-04 |             . |        0.014 s |        0.014 s
  SCF    3 :  0.25E-13 |  0.85E-03 |  -0.88E-01 |  0.82E-05 |             . |        0.015 s |        0.015 s
  SCF    4 :  0.92E-14 |  0.38E-03 |  -0.17E-01 |  0.74E-05 |             . |        0.014 s |        0.015 s
  SCF    5 :  0.15E-13 |  0.55E-04 |   0.40E-03 |  0.40E-07 |             . |        0.015 s |        0.015 s
  SCF    6 : -0.82E-14 |  0.40E-05 |  -0.31E-03 |  0.35E-07 |             . |        0.015 s |        0.015 s
  SCF    7 :  0.17E-13 |  0.25E-05 |   0.28E-03 |  0.38E-07 |             . |        0.014 s |        0.015 s
  SCF    8 :  0.23E-13 |  0.54E-06 |   0.82E-05 |  0.99E-08 |             . |        0.015 s |        0.015 s
  SCF    9 :  0.15E-13 |  0.53E-07 |  -0.39E-05 | -0.36E-09 |      0.62E+00 |        0.041 s |        0.042 s

  Total energy components:
  | Sum of eigenvalues            :         -41.30896187 Ha       -1124.07404482 eV
  | XC energy correction          :          -8.74274144 Ha        -237.90209882 eV
  | XC potential correction       :          11.51559497 Ha         313.35528257 eV
  | Free-atom electrostatic energy:         -35.54057969 Ha        -967.10837938 eV
  | Hartree energy correction     :          -1.91275816 Ha         -52.04879782 eV
  | Entropy correction            :           0.00000000 Ha           0.00000000 eV
  | ---------------------------
  | Total energy                  :         -75.98944619 Ha       -2067.77803827 eV
  | Total energy, T -> 0          :         -75.98944619 Ha       -2067.77803827 eV  <-- do not rely on this value for anything but (periodic) metals
  | Electronic free energy        :         -75.98944619 Ha       -2067.77803827 eV

  Derived energy quantities:
  | Kinetic energy                :          75.69413642 Ha        2059.74225063 eV
  | Electrostatic energy          :        -142.94084118 Ha       -3889.61819008 eV
  | Energy correction for multipole
  | error in Hartree potential    :          -0.00367476 Ha          -0.09999519 eV
  | Sum of eigenvalues per atom                           :        -374.69134827 eV
  | Total energy (T->0) per atom                          :        -689.25934609 eV  <-- do not rely on this value for anything but (periodic) metals
  | Electronic free energy per atom                       :        -689.25934609 eV
  Highest occupied state (VBM) at     -7.22577518 eV
  | Occupation number:      2.00000000

  Lowest unoccupied state (CBM) at     0.06333588 eV
  | Occupation number:      0.00000000

  Overall HOMO-LUMO gap:      7.28911106 eV.
  | Chemical Potential                          :    -0.35586812 eV

  Self-consistency cycle converged.

  Removing unitary transformations (pure translations, rotations) from forces on atoms.
  Atomic forces before filtering:
  | Net force on center of mass :   0.139600E-01  0.265992E-01  0.189378E-04 eV/A
  | Net torque on center of mass:  -0.398743E-05  0.369123E-05 -0.202266E-02 eV
  Atomic forces after filtering:
  | Net force on center of mass :  -0.133805E-15  0.000000E+00 -0.108890E-19 eV/A
  | Net torque on center of mass:  -0.115245E-19 -0.230489E-19  0.000000E+00 eV

  Energy and forces in a compact form:
  | Total energy uncorrected      :         -0.206777803826675E+04 eV
  | Total energy corrected        :         -0.206777803826675E+04 eV  <-- do not rely on this value for anything but (periodic) metals
  | Electronic free energy        :         -0.206777803826675E+04 eV
  Total atomic forces (unitary forces cleaned) [eV/Ang]:
  |    1         -0.346210275412861E+00         -0.520615919604426E+00         -0.966369462150621E-04
  |    2          0.587866333819113E+00         -0.830442530429637E-01          0.171037714240380E-03
  |    3         -0.241656058406252E+00          0.603660172647390E+00         -0.744007680253175E-04

  Removing unitary transformations (pure translations, rotations) from forces on atoms.
  Atomic forces before filtering:
  | Net force on center of mass :  -0.133805E-15  0.000000E+00 -0.108890E-19 eV/A
  | Net torque on center of mass:  -0.115245E-19 -0.230489E-19  0.000000E+00 eV
  Atomic forces after filtering:
  | Net force on center of mass :  -0.446015E-16  0.000000E+00  0.108890E-19 eV/A
  | Net torque on center of mass:   0.000000E+00 -0.230489E-19  0.000000E+00 eV
 ------------------------------------------------------------------------
 Atomic structure that was used in the preceding time step of the wrapper
                         x [A]             y [A]             z [A]
            atom        -0.00044436        0.00021651        0.00068957  O
            atom         0.96112981       -0.00029923        0.00096836  H
            atom        -0.24091781        0.93010946        0.00061317  H
 ------------------------------------------------------------------------
  @ DRIVER MODE: Message from server: STATUS      
  @ DRIVER MODE: Message from server: GETFORCE    
  @ DRIVER MODE: Returning v,forces,stress 
  @ DRIVER MODE: Message from server: STATUS      
  @ DRIVER MODE: Message from server: INIT        
  @ DRIVER MODE: Receiving replica           0
  @ DRIVER MODE: Message from server: STATUS      
  @ DRIVER MODE: Message from server: POSDATA     
  @ DRIVER MODE: Received positions 

------------------------------------------------------------
          Begin self-consistency loop: Re-initialization.

  Date     :  20211124, Time     :  193219.253
------------------------------------------------------------

  Initializing index lists of integration centers etc. from given atomic structure:
  | Number of centers in hartree potential         :         3
  | Number of centers in hartree multipole         :         3
  | Number of centers in electron density summation:         3
  | Number of centers in basis integrals           :         3
  | Number of centers in integrals                 :         3
  | Number of centers in hamiltonian               :         3
  Partitioning the integration grid into batches with parallel hashing+maxmin method.
  Initializing partition tables, free-atom densities, potentials, etc. across the integration grid (initialize_grid_storage).
  | Species        1: outer_partition_radius set to              5.048384829883283 AA .
  | Species        2: outer_partition_radius set to              5.054417573612229 AA .
  | Net number of integration points:    15924
  | of which are non-zero points    :    14488
  Renormalizing the initial density to the exact electron count on the 3D integration grid.
  | Initial density: Formal number of electrons (from input files) :      10.0000000000
  | Integrated number of electrons on 3D grid     :       9.9999392383
  | Charge integration error                      :      -0.0000607617
  | Normalization factor for density and gradient :       1.0000060762
  Renormalizing the free-atom superposition density to the exact electron count on the 3D integration grid.
  | Formal number of electrons (from input files) :      10.0000000000
  | Integrated number of electrons on 3D grid     :       9.9999392383
  | Charge integration error                      :      -0.0000607617
  | Normalization factor for density and gradient :       1.0000060762
  Calculating total energy contributions from superposition of free atom densities.
  Initialize hartree_potential_storage
  Max. number of atoms included in rho_multipole:            3
  Integrating overlap matrix.
  Time summed over all CPUs for integration: real work        0.010 s, elapsed        0.010 s
  Normalizing  ScaLAPACK eigenvectors
  Deallocating overlap matrix.

  End scf reinitialization - timings           :  max(cpu_time)    wall_clock(cpu1)
  | Time for scf. reinitialization             :        0.013 s           0.013 s
  | Boundary condition initialization          :        0.000 s           0.000 s
  | Integration                                :        0.003 s           0.003 s
  | Grid partitioning                          :        0.005 s           0.005 s
  | Preloading free-atom quantities on grid    :        0.003 s           0.003 s
  | Free-atom superposition energy             :        0.002 s           0.002 s
  | K.-S. eigenvector reorthonormalization     :        0.000 s           0.000 s
------------------------------------------------------------
  Time for density update prior                :  max(cpu_time)    wall_clock(cpu1)
  | self-consistency iterative process         :        0.003 s           0.003 s
------------------------------------------------------------
Convergence:    q app. |  density  | eigen (eV) | Etot (eV) | forces (eV/A) |       CPU time |     Clock time
  SCF    1 :  0.79E-14 |  0.17E+00 |  -0.11E+04 | -0.21E+04 |             . |        0.015 s |        0.015 s
  SCF    2 : -0.46E-14 |  0.57E-02 |  -0.40E+00 |  0.37E-03 |             . |        0.015 s |        0.015 s
  SCF    3 :  0.24E-13 |  0.27E-02 |  -0.28E+00 |  0.94E-04 |             . |        0.015 s |        0.015 s
  SCF    4 :  0.17E-13 |  0.12E-02 |  -0.56E-01 |  0.34E-04 |             . |        0.015 s |        0.015 s
  SCF    5 :  0.23E-13 |  0.18E-03 |   0.24E-02 |  0.50E-06 |             . |        0.015 s |        0.015 s
  SCF    6 :  0.56E-14 |  0.16E-04 |  -0.20E-02 | -0.14E-07 |             . |        0.016 s |        0.016 s
  SCF    7 :  0.23E-13 |  0.95E-05 |   0.10E-02 |  0.22E-06 |             . |        0.016 s |        0.016 s
  SCF    8 :  0.60E-14 |  0.58E-06 |  -0.46E-04 | -0.11E-08 |             . |        0.016 s |        0.015 s
  SCF    9 :  0.16E-13 |  0.94E-07 |  -0.67E-05 | -0.55E-09 |      0.17E+00 |        0.042 s |        0.041 s

  Total energy components:
  | Sum of eigenvalues            :         -41.29520175 Ha       -1123.69961283 eV
  | XC energy correction          :          -8.73477171 Ha        -237.68523150 eV
  | XC potential correction       :          11.50508217 Ha         313.06921464 eV
  | Free-atom electrostatic energy:         -35.58039842 Ha        -968.19190205 eV
  | Hartree energy correction     :          -1.88440711 Ha         -51.27732643 eV
  | Entropy correction            :           0.00000000 Ha           0.00000000 eV
  | ---------------------------
  | Total energy                  :         -75.98969682 Ha       -2067.78485817 eV
  | Total energy, T -> 0          :         -75.98969682 Ha       -2067.78485817 eV  <-- do not rely on this value for anything but (periodic) metals
  | Electronic free energy        :         -75.98969682 Ha       -2067.78485817 eV

  Derived energy quantities:
  | Kinetic energy                :          75.66472498 Ha        2058.94192461 eV
  | Electrostatic energy          :        -142.91965009 Ha       -3889.04155127 eV
  | Energy correction for multipole
  | error in Hartree potential    :          -0.00358822 Ha          -0.09764043 eV
  | Sum of eigenvalues per atom                           :        -374.56653761 eV
  | Total energy (T->0) per atom                          :        -689.26161939 eV  <-- do not rely on this value for anything but (periodic) metals
  | Electronic free energy per atom                       :        -689.26161939 eV
  Highest occupied state (VBM) at     -7.20462698 eV
  | Occupation number:      2.00000000

  Lowest unoccupied state (CBM) at     0.00776804 eV
  | Occupation number:      0.00000000

  Overall HOMO-LUMO gap:      7.21239502 eV.
  | Chemical Potential                          :    -0.51271598 eV

  Self-consistency cycle converged.

  Removing unitary transformations (pure translations, rotations) from forces on atoms.
  Atomic forces before filtering:
  | Net force on center of mass :   0.876005E-02  0.192048E-01 -0.105101E-03 eV/A
  | Net torque on center of mass:   0.378741E-04 -0.297820E-04 -0.185836E-02 eV
  Atomic forces after filtering:
  | Net force on center of mass :   0.000000E+00  0.223008E-16  0.435562E-19 eV/A
  | Net torque on center of mass:   0.000000E+00 -0.460979E-19  0.118011E-16 eV

  Energy and forces in a compact form:
  | Total energy uncorrected      :         -0.206778485817126E+04 eV
  | Total energy corrected        :         -0.206778485817126E+04 eV  <-- do not rely on this value for anything but (periodic) metals
  | Electronic free energy        :         -0.206778485817126E+04 eV
  Total atomic forces (unitary forces cleaned) [eV/Ang]:
  |    1         -0.379206693138905E-01         -0.143279288389104E+00         -0.198278000456652E-03
  |    2          0.128334583644701E+00         -0.412995349109574E-01         -0.536633988704637E-04
  |    3         -0.904139143308108E-01          0.184578823300061E+00          0.251941399327115E-03

  Removing unitary transformations (pure translations, rotations) from forces on atoms.
  Atomic forces before filtering:
  | Net force on center of mass :   0.000000E+00  0.223008E-16  0.435562E-19 eV/A
  | Net torque on center of mass:   0.000000E+00 -0.460979E-19  0.118011E-16 eV
  Atomic forces after filtering:
  | Net force on center of mass :   0.000000E+00  0.223008E-16 -0.435562E-19 eV/A
  | Net torque on center of mass:   0.230489E-19 -0.460979E-19  0.000000E+00 eV
 ------------------------------------------------------------------------
 Atomic structure that was used in the preceding time step of the wrapper
                         x [A]             y [A]             z [A]
            atom        -0.00100165        0.00014289        0.00058768  O
            atom         0.96928604       -0.00194292        0.00060912  H
            atom        -0.24466825        0.93783534        0.00187299  H
 ------------------------------------------------------------------------
  @ DRIVER MODE: Message from server: STATUS      
  @ DRIVER MODE: Message from server: GETFORCE    
  @ DRIVER MODE: Returning v,forces,stress 
  @ DRIVER MODE: Message from server: STATUS      
  @ DRIVER MODE: Message from server: INIT        
  @ DRIVER MODE: Receiving replica           0
  @ DRIVER MODE: Message from server: STATUS      
  @ DRIVER MODE: Message from server: POSDATA     
  @ DRIVER MODE: Received positions 

------------------------------------------------------------
          Begin self-consistency loop: Re-initialization.

  Date     :  20211124, Time     :  193219.565
------------------------------------------------------------

  Initializing index lists of integration centers etc. from given atomic structure:
  | Number of centers in hartree potential         :         3
  | Number of centers in hartree multipole         :         3
  | Number of centers in electron density summation:         3
  | Number of centers in basis integrals           :         3
  | Number of centers in integrals                 :         3
  | Number of centers in hamiltonian               :         3
  Partitioning the integration grid into batches with parallel hashing+maxmin method.
  Initializing partition tables, free-atom densities, potentials, etc. across the integration grid (initialize_grid_storage).
  | Species        1: outer_partition_radius set to              5.048384829883283 AA .
  | Species        2: outer_partition_radius set to              5.054417573612229 AA .
  | Net number of integration points:    15924
  | of which are non-zero points    :    14495
  Renormalizing the initial density to the exact electron count on the 3D integration grid.
  | Initial density: Formal number of electrons (from input files) :      10.0000000000
  | Integrated number of electrons on 3D grid     :       9.9999450156
  | Charge integration error                      :      -0.0000549844
  | Normalization factor for density and gradient :       1.0000054985
  Renormalizing the free-atom superposition density to the exact electron count on the 3D integration grid.
  | Formal number of electrons (from input files) :      10.0000000000
  | Integrated number of electrons on 3D grid     :       9.9999450156
  | Charge integration error                      :      -0.0000549844
  | Normalization factor for density and gradient :       1.0000054985
  Calculating total energy contributions from superposition of free atom densities.
  Initialize hartree_potential_storage
  Max. number of atoms included in rho_multipole:            3
  Integrating overlap matrix.
  Time summed over all CPUs for integration: real work        0.011 s, elapsed        0.011 s
  Normalizing  ScaLAPACK eigenvectors
  Deallocating overlap matrix.

  End scf reinitialization - timings           :  max(cpu_time)    wall_clock(cpu1)
  | Time for scf. reinitialization             :        0.014 s           0.014 s
  | Boundary condition initialization          :        0.000 s           0.000 s
  | Integration                                :        0.003 s           0.003 s
  | Grid partitioning                          :        0.006 s           0.006 s
  | Preloading free-atom quantities on grid    :        0.002 s           0.002 s
  | Free-atom superposition energy             :        0.002 s           0.003 s
  | K.-S. eigenvector reorthonormalization     :        0.000 s           0.000 s
------------------------------------------------------------
  Time for density update prior                :  max(cpu_time)    wall_clock(cpu1)
  | self-consistency iterative process         :        0.003 s           0.003 s
------------------------------------------------------------
Convergence:    q app. |  density  | eigen (eV) | Etot (eV) | forces (eV/A) |       CPU time |     Clock time
  SCF    1 :  0.23E-13 |  0.17E+00 |  -0.11E+04 | -0.21E+04 |             . |        0.015 s |        0.015 s
  SCF    2 :  0.15E-13 |  0.71E-02 |  -0.50E+00 |  0.58E-03 |             . |        0.014 s |        0.014 s
  SCF    3 :  0.24E-13 |  0.33E-02 |  -0.34E+00 |  0.14E-03 |             . |        0.015 s |        0.014 s
  SCF    4 :  0.32E-14 |  0.15E-02 |  -0.70E-01 |  0.45E-04 |             . |        0.015 s |        0.015 s
  SCF    5 :  0.26E-13 |  0.22E-03 |   0.35E-02 |  0.74E-06 |             . |        0.015 s |        0.016 s
  SCF    6 :  0.25E-13 |  0.22E-04 |  -0.28E-02 | -0.61E-07 |             . |        0.016 s |        0.016 s
  SCF    7 :  0.17E-13 |  0.12E-04 |   0.12E-02 |  0.26E-06 |             . |        0.016 s |        0.016 s
  SCF    8 :  0.24E-13 |  0.84E-06 |  -0.43E-04 |  0.14E-08 |             . |        0.015 s |        0.015 s
  SCF    9 :  0.12E-13 |  0.16E-06 |  -0.16E-04 | -0.85E-09 |      0.39E+00 |        0.038 s |        0.038 s

  Total energy components:
  | Sum of eigenvalues            :         -41.27827944 Ha       -1123.23913344 eV
  | XC energy correction          :          -8.72498928 Ha        -237.41903815 eV
  | XC potential correction       :          11.49217905 Ha         312.71810297 eV
  | Free-atom electrostatic energy:         -35.62849919 Ha        -969.50079050 eV
  | Hartree energy correction     :          -1.85003021 Ha         -50.34188340 eV
  | Entropy correction            :           0.00000000 Ha           0.00000000 eV
  | ---------------------------
  | Total energy                  :         -75.98961907 Ha       -2067.78274253 eV
  | Total energy, T -> 0          :         -75.98961907 Ha       -2067.78274253 eV  <-- do not rely on this value for anything but (periodic) metals
  | Electronic free energy        :         -75.98961907 Ha       -2067.78274253 eV

  Derived energy quantities:
  | Kinetic energy                :          75.62926670 Ha        2057.97705561 eV
  | Electrostatic energy          :        -142.89389649 Ha       -3888.34076000 eV
  | Energy correction for multipole
  | error in Hartree potential    :          -0.00348404 Ha          -0.09480546 eV
  | Sum of eigenvalues per atom                           :        -374.41304448 eV
  | Total energy (T->0) per atom                          :        -689.26091418 eV  <-- do not rely on this value for anything but (periodic) metals
  | Electronic free energy per atom                       :        -689.26091418 eV
  Highest occupied state (VBM) at     -7.17852186 eV
  | Occupation number:      2.00000000

  Lowest unoccupied state (CBM) at    -0.06319765 eV
  | Occupation number:      0.00000000

  Overall HOMO-LUMO gap:      7.11532422 eV.
  | Chemical Potential                          :    -0.70462562 eV

  Self-consistency cycle converged.

  Removing unitary transformations (pure translations, rotations) from forces on atoms.
  Atomic forces before filtering:
  | Net force on center of mass :   0.228006E-02  0.870334E-02 -0.325285E-03 eV/A
  | Net torque on center of mass:   0.102712E-03 -0.847606E-04 -0.134756E-02 eV
  Atomic forces after filtering:
  | Net force on center of mass :   0.000000E+00 -0.446015E-16  0.174225E-18 eV/A
  | Net torque on center of mass:   0.921958E-19 -0.921958E-19  0.472042E-16 eV

  Energy and forces in a compact form:
  | Total energy uncorrected      :         -0.206778274253096E+04 eV
  | Total energy corrected        :         -0.206778274253096E+04 eV  <-- do not rely on this value for anything but (periodic) metals
  | Electronic free energy        :         -0.206778274253096E+04 eV
  Total atomic forces (unitary forces cleaned) [eV/Ang]:
  |    1          0.334449749421270E+00          0.278485358021322E+00          0.125572093902005E-02
  |    2         -0.422191262841187E+00          0.125345580981268E-01         -0.146676562622109E-03
  |    3          0.877415134199178E-01         -0.291019916119449E+00         -0.110904437639794E-02

  Removing unitary transformations (pure translations, rotations) from forces on atoms.
  Atomic forces before filtering:
  | Net force on center of mass :   0.000000E+00 -0.446015E-16  0.174225E-18 eV/A
  | Net torque on center of mass:   0.921958E-19 -0.921958E-19  0.472042E-16 eV
  Atomic forces after filtering:
  | Net force on center of mass :   0.111504E-16  0.446015E-16  0.000000E+00 eV/A
  | Net torque on center of mass:   0.921958E-19 -0.921958E-19  0.354032E-16 eV
 ------------------------------------------------------------------------
 Atomic structure that was used in the preceding time step of the wrapper
                         x [A]             y [A]             z [A]
            atom        -0.00152706       -0.00054949        0.00061595  O
            atom         0.97993442       -0.00415465        0.00105781  H
            atom        -0.24998067        0.94638047        0.00424181  H
 ------------------------------------------------------------------------
  @ DRIVER MODE: Message from server: STATUS      
  @ DRIVER MODE: Message from server: GETFORCE    
  @ DRIVER MODE: Returning v,forces,stress 
  @ DRIVER MODE: Message from server: STATUS      
  @ DRIVER MODE: Message from server: INIT        
  @ DRIVER MODE: Receiving replica           0
  @ DRIVER MODE: Message from server: STATUS      
  @ DRIVER MODE: Message from server: POSDATA     
  @ DRIVER MODE: Received positions 

------------------------------------------------------------
          Begin self-consistency loop: Re-initialization.

  Date     :  20211124, Time     :  193219.877
------------------------------------------------------------

  Initializing index lists of integration centers etc. from given atomic structure:
  | Number of centers in hartree potential         :         3
  | Number of centers in hartree multipole         :         3
  | Number of centers in electron density summation:         3
  | Number of centers in basis integrals           :         3
  | Number of centers in integrals                 :         3
  | Number of centers in hamiltonian               :         3
  Partitioning the integration grid into batches with parallel hashing+maxmin method.
  Initializing partition tables, free-atom densities, potentials, etc. across the integration grid (initialize_grid_storage).
  | Species        1: outer_partition_radius set to              5.048384829883283 AA .
  | Species        2: outer_partition_radius set to              5.054417573612229 AA .
  | Net number of integration points:    15924
  | of which are non-zero points    :    14496
  Renormalizing the initial density to the exact electron count on the 3D integration grid.
  | Initial density: Formal number of electrons (from input files) :      10.0000000000
  | Integrated number of electrons on 3D grid     :       9.9999498142
  | Charge integration error                      :      -0.0000501858
  | Normalization factor for density and gradient :       1.0000050186
  Renormalizing the free-atom superposition density to the exact electron count on the 3D integration grid.
  | Formal number of electrons (from input files) :      10.0000000000
  | Integrated number of electrons on 3D grid     :       9.9999498142
  | Charge integration error                      :      -0.0000501858
  | Normalization factor for density and gradient :       1.0000050186
  Calculating total energy contributions from superposition of free atom densities.
  Initialize hartree_potential_storage
  Max. number of atoms included in rho_multipole:            3
  Integrating overlap matrix.
  Time summed over all CPUs for integration: real work        0.009 s, elapsed        0.010 s
  Normalizing  ScaLAPACK eigenvectors
  Deallocating overlap matrix.

  End scf reinitialization - timings           :  max(cpu_time)    wall_clock(cpu1)
  | Time for scf. reinitialization             :        0.014 s           0.014 s
  | Boundary condition initialization          :        0.000 s           0.000 s
  | Integration                                :        0.003 s           0.003 s
  | Grid partitioning                          :        0.005 s           0.006 s
  | Preloading free-atom quantities on grid    :        0.003 s           0.002 s
  | Free-atom superposition energy             :        0.003 s           0.003 s
  | K.-S. eigenvector reorthonormalization     :        0.000 s           0.000 s
------------------------------------------------------------
  Time for density update prior                :  max(cpu_time)    wall_clock(cpu1)
  | self-consistency iterative process         :        0.003 s           0.004 s
------------------------------------------------------------
Convergence:    q app. |  density  | eigen (eV) | Etot (eV) | forces (eV/A) |       CPU time |     Clock time
  SCF    1 : -0.57E-14 |  0.17E+00 |  -0.11E+04 | -0.21E+04 |             . |        0.016 s |        0.015 s
  SCF    2 :  0.31E-14 |  0.41E-02 |  -0.29E+00 |  0.19E-03 |             . |        0.015 s |        0.016 s
  SCF    3 :  0.32E-13 |  0.19E-02 |  -0.20E+00 |  0.46E-04 |             . |        0.015 s |        0.015 s
  SCF    4 : -0.48E-14 |  0.86E-03 |  -0.42E-01 |  0.21E-04 |             . |        0.016 s |        0.016 s
  SCF    5 :  0.10E-13 |  0.13E-03 |   0.79E-03 |  0.24E-06 |             . |        0.016 s |        0.016 s
  SCF    6 :  0.98E-14 |  0.10E-04 |  -0.11E-02 | -0.24E-08 |             . |        0.018 s |        0.018 s
  SCF    7 :  0.24E-13 |  0.68E-05 |   0.77E-03 |  0.13E-06 |             . |        0.016 s |        0.016 s
  SCF    8 :  0.72E-14 |  0.53E-06 |  -0.29E-04 |  0.13E-08 |             . |        0.016 s |        0.016 s
  SCF    9 :  0.67E-14 |  0.10E-06 |  -0.81E-05 | -0.51E-09 |      0.69E+00 |        0.039 s |        0.039 s

  Total energy components:
  | Sum of eigenvalues            :         -41.26795466 Ha       -1122.95818173 eV
  | XC energy correction          :          -8.71927710 Ha        -237.26360181 eV
  | XC potential correction       :          11.48464515 Ha         312.51309492 eV
  | Free-atom electrostatic energy:         -35.65619843 Ha        -970.25452541 eV
  | Hartree energy correction     :          -1.83058986 Ha         -49.81288457 eV
  | Entropy correction            :           0.00000000 Ha           0.00000000 eV
  | ---------------------------
  | Total energy                  :         -75.98937491 Ha       -2067.77609860 eV
  | Total energy, T -> 0          :         -75.98937491 Ha       -2067.77609860 eV  <-- do not rely on this value for anything but (periodic) metals
  | Electronic free energy        :         -75.98937491 Ha       -2067.77609860 eV

  Derived energy quantities:
  | Kinetic energy                :          75.60859964 Ha        2057.41467643 eV
  | Electrostatic energy          :        -142.87869745 Ha       -3887.92717322 eV
  | Energy correction for multipole
  | error in Hartree potential    :          -0.00342243 Ha          -0.09312904 eV
  | Sum of eigenvalues per atom                           :        -374.31939391 eV
  | Total energy (T->0) per atom                          :        -689.25869953 eV  <-- do not rely on this value for anything but (periodic) metals
  | Electronic free energy per atom                       :        -689.25869953 eV
  Highest occupied state (VBM) at     -7.16241174 eV
  | Occupation number:      2.00000000

  Lowest unoccupied state (CBM) at    -0.10550262 eV
  | Occupation number:      0.00000000

  Overall HOMO-LUMO gap:      7.05690913 eV.
  | Chemical Potential                          :    -0.83721686 eV

  Self-consistency cycle converged.

  Removing unitary transformations (pure translations, rotations) from forces on atoms.
  Atomic forces before filtering:
  | Net force on center of mass :  -0.963389E-03  0.216448E-02 -0.527476E-03 eV/A
  | Net torque on center of mass:   0.153445E-03 -0.130185E-03 -0.786018E-03 eV
  Atomic forces after filtering:
  | Net force on center of mass :  -0.446015E-16  0.000000E+00  0.000000E+00 eV/A
  | Net torque on center of mass:   0.000000E+00 -0.368783E-18  0.708063E-16 eV

  Energy and forces in a compact form:
  | Total energy uncorrected      :         -0.206777609860238E+04 eV
  | Total energy corrected        :         -0.206777609860238E+04 eV  <-- do not rely on this value for anything but (periodic) metals
  | Electronic free energy        :         -0.206777609860238E+04 eV
  Total atomic forces (unitary forces cleaned) [eV/Ang]:
  |    1          0.526546428352600E+00          0.500086340487523E+00          0.323327051739767E-02
  |    2         -0.730398056666658E+00          0.584111017783012E-01          0.412161537198451E-05
  |    3          0.203851628314058E+00         -0.558497442265824E+00         -0.323739213276965E-02

  Removing unitary transformations (pure translations, rotations) from forces on atoms.
  Atomic forces before filtering:
  | Net force on center of mass :  -0.446015E-16  0.000000E+00  0.000000E+00 eV/A
  | Net torque on center of mass:   0.000000E+00 -0.368783E-18  0.708063E-16 eV
  Atomic forces after filtering:
  | Net force on center of mass :  -0.446015E-16  0.000000E+00  0.000000E+00 eV/A
  | Net torque on center of mass:   0.000000E+00 -0.368783E-18  0.708063E-16 eV
 ------------------------------------------------------------------------
 Atomic structure that was used in the preceding time step of the wrapper
                         x [A]             y [A]             z [A]
            atom        -0.00154082       -0.00059055        0.00044633  O
            atom         0.98646958       -0.00700217        0.00087410  H
            atom        -0.25410520        0.95149554        0.00600999  H
 ------------------------------------------------------------------------
  @ DRIVER MODE: Message from server: STATUS      
  @ DRIVER MODE: Message from server: GETFORCE    
  @ DRIVER MODE: Returning v,forces,stress 
  @ DRIVER MODE: Message from server: STATUS      
  @ DRIVER MODE: Message from server: INIT        
  @ DRIVER MODE: Receiving replica           0
  @ DRIVER MODE: Message from server: STATUS      
  @ DRIVER MODE: Message from server: POSDATA     
  @ DRIVER MODE: Received positions 

------------------------------------------------------------
          Begin self-consistency loop: Re-initialization.

  Date     :  20211124, Time     :  193220.193
------------------------------------------------------------

  Initializing index lists of integration centers etc. from given atomic structure:
  | Number of centers in hartree potential         :         3
  | Number of centers in hartree multipole         :         3
  | Number of centers in electron density summation:         3
  | Number of centers in basis integrals           :         3
  | Number of centers in integrals                 :         3
  | Number of centers in hamiltonian               :         3
  Partitioning the integration grid into batches with parallel hashing+maxmin method.
  Initializing partition tables, free-atom densities, potentials, etc. across the integration grid (initialize_grid_storage).
  | Species        1: outer_partition_radius set to              5.048384829883283 AA .
  | Species        2: outer_partition_radius set to              5.054417573612229 AA .
  | Net number of integration points:    15924
  | of which are non-zero points    :    14498
  Renormalizing the initial density to the exact electron count on the 3D integration grid.
  | Initial density: Formal number of electrons (from input files) :      10.0000000000
  | Integrated number of electrons on 3D grid     :       9.9999499261
  | Charge integration error                      :      -0.0000500739
  | Normalization factor for density and gradient :       1.0000050074
  Renormalizing the free-atom superposition density to the exact electron count on the 3D integration grid.
  | Formal number of electrons (from input files) :      10.0000000000
  | Integrated number of electrons on 3D grid     :       9.9999499261
  | Charge integration error                      :      -0.0000500739
  | Normalization factor for density and gradient :       1.0000050074
  Calculating total energy contributions from superposition of free atom densities.
  Initialize hartree_potential_storage
  Max. number of atoms included in rho_multipole:            3
  Integrating overlap matrix.
  Time summed over all CPUs for integration: real work        0.010 s, elapsed        0.010 s
  Normalizing  ScaLAPACK eigenvectors
  Deallocating overlap matrix.

  End scf reinitialization - timings           :  max(cpu_time)    wall_clock(cpu1)
  | Time for scf. reinitialization             :        0.014 s           0.014 s
  | Boundary condition initialization          :        0.000 s           0.000 s
  | Integration                                :        0.003 s           0.002 s
  | Grid partitioning                          :        0.005 s           0.006 s
  | Preloading free-atom quantities on grid    :        0.003 s           0.003 s
  | Free-atom superposition energy             :        0.002 s           0.002 s
  | K.-S. eigenvector reorthonormalization     :        0.000 s           0.001 s
------------------------------------------------------------
  Time for density update prior                :  max(cpu_time)    wall_clock(cpu1)
  | self-consistency iterative process         :        0.003 s           0.003 s
------------------------------------------------------------
Convergence:    q app. |  density  | eigen (eV) | Etot (eV) | forces (eV/A) |       CPU time |     Clock time
  SCF    1 :  0.62E-14 |  0.17E+00 |  -0.11E+04 | -0.21E+04 |             . |        0.015 s |        0.015 s
  SCF    2 :  0.13E-13 |  0.30E-03 |   0.47E-02 |  0.19E-05 |             . |        0.015 s |        0.015 s
  SCF    3 :  0.17E-13 |  0.22E-03 |   0.29E-02 |  0.27E-05 |             . |        0.016 s |        0.015 s
  SCF    4 : -0.26E-14 |  0.79E-04 |  -0.53E-02 |  0.38E-06 |             . |        0.015 s |        0.016 s
  SCF    5 :  0.21E-13 |  0.18E-04 |   0.61E-03 | -0.91E-07 |             . |        0.014 s |        0.013 s
  SCF    6 :  0.90E-14 |  0.32E-05 |   0.40E-04 | -0.11E-07 |             . |        0.015 s |        0.015 s
  SCF    7 :  0.28E-13 |  0.42E-06 |  -0.10E-04 |  0.21E-08 |             . |        0.016 s |        0.015 s
  SCF    8 :  0.37E-14 |  0.61E-07 |  -0.10E-05 | -0.67E-09 |      0.69E+00 |        0.038 s |        0.038 s

  Total energy components:
  | Sum of eigenvalues            :         -41.26708620 Ha       -1122.93454975 eV
  | XC energy correction          :          -8.71916889 Ha        -237.26065725 eV
  | XC potential correction       :          11.48450259 Ha         312.50921567 eV
  | Free-atom electrostatic energy:         -35.65672983 Ha        -970.26898534 eV
  | Hartree energy correction     :          -1.83087880 Ha         -49.82074699 eV
  | Entropy correction            :           0.00000000 Ha           0.00000000 eV
  | ---------------------------
  | Total energy                  :         -75.98936113 Ha       -2067.77572366 eV
  | Total energy, T -> 0          :         -75.98936113 Ha       -2067.77572366 eV  <-- do not rely on this value for anything but (periodic) metals
  | Electronic free energy        :         -75.98936113 Ha       -2067.77572366 eV

  Derived energy quantities:
  | Kinetic energy                :          75.60775225 Ha        2057.39161760 eV
  | Electrostatic energy          :        -142.87794449 Ha       -3887.90668401 eV
  | Energy correction for multipole
  | error in Hartree potential    :          -0.00341770 Ha          -0.09300031 eV
  | Sum of eigenvalues per atom                           :        -374.31151658 eV
  | Total energy (T->0) per atom                          :        -689.25857455 eV  <-- do not rely on this value for anything but (periodic) metals
  | Electronic free energy per atom                       :        -689.25857455 eV
  Highest occupied state (VBM) at     -7.16086043 eV
  | Occupation number:      2.00000000

  Lowest unoccupied state (CBM) at    -0.10538609 eV
  | Occupation number:      0.00000000

  Overall HOMO-LUMO gap:      7.05547433 eV.
  | Chemical Potential                          :    -0.87282705 eV

  Self-consistency cycle converged.

  Removing unitary transformations (pure translations, rotations) from forces on atoms.
  Atomic forces before filtering:
  | Net force on center of mass :  -0.367726E-03  0.164914E-02 -0.864895E-03 eV/A
  | Net torque on center of mass:   0.251482E-03 -0.212090E-03 -0.483440E-03 eV
  Atomic forces after filtering:
  | Net force on center of mass :   0.000000E+00  0.000000E+00  0.000000E+00 eV/A
  | Net torque on center of mass:   0.110635E-17  0.737566E-18  0.472042E-16 eV

  Energy and forces in a compact form:
  | Total energy uncorrected      :         -0.206777572366103E+04 eV
  | Total energy corrected        :         -0.206777572366103E+04 eV  <-- do not rely on this value for anything but (periodic) metals
  | Electronic free energy        :         -0.206777572366103E+04 eV
  Total atomic forces (unitary forces cleaned) [eV/Ang]:
  |    1          0.492882061544499E+00          0.499117230159087E+00          0.347959116743205E-02
  |    2         -0.724281788245024E+00          0.800633239635954E-01          0.130633777464187E-02
  |    3          0.231399726700525E+00         -0.579180554122683E+00         -0.478592894207392E-02

  Removing unitary transformations (pure translations, rotations) from forces on atoms.
  Atomic forces before filtering:
  | Net force on center of mass :   0.000000E+00  0.000000E+00  0.000000E+00 eV/A
  | Net torque on center of mass:   0.110635E-17  0.737566E-18  0.472042E-16 eV
  Atomic forces after filtering:
  | Net force on center of mass :  -0.446015E-16  0.000000E+00  0.000000E+00 eV/A
  | Net torque on center of mass:   0.368783E-18 -0.110635E-17  0.708063E-16 eV
 ------------------------------------------------------------------------
 Atomic structure that was used in the preceding time step of the wrapper
                         x [A]             y [A]             z [A]
            atom        -0.00156048       -0.00072446        0.00045281  O
            atom         0.98615072       -0.00962614       -0.00053732  H
            atom        -0.25646779        0.95117586        0.00820183  H
 ------------------------------------------------------------------------
  @ DRIVER MODE: Message from server: STATUS      
  @ DRIVER MODE: Message from server: GETFORCE    
  @ DRIVER MODE: Returning v,forces,stress 

------------------------------------------------------------------------------
  Final output of selected total energy values:

  The following output summarizes some interesting total energy values
  at the end of a run (AFTER all relaxation, molecular dynamics, etc.).

  | Total energy of the DFT / Hartree-Fock s.c.f. calculation      :          -2067.775723661 eV
  | Final zero-broadening corrected energy (caution - metals only) :          -2067.775723661 eV
  | For reference only, the value of 1 Hartree used in FHI-aims is :             27.211384500 eV

  Before relying on these values, please be sure to understand exactly which
  total energy value is referred to by a given number. Different objects may
  all carry the same name 'total energy'. Definitions:

  Total energy of the DFT / Hartree-Fock s.c.f. calculation:
  | Note that this energy does not include ANY quantities calculated after the
  | s.c.f. cycle, in particular not ANY RPA, MP2, etc. many-body perturbation terms.

  Final zero-broadening corrected energy:
  | For metallic systems only, a broadening of the occupation numbers at the Fermi
  | level can be extrapolated back to zero broadening by an electron-gas inspired
  | formula. For all systems that are not real metals, this value can be
  | meaningless and should be avoided.

------------------------------------------------------------------------------
  Methods described in the following list of references were used in this FHI-aims run.
  If you publish the results, please make sure to cite these reference if they apply.
  FHI-aims is an academic code, and for our developers (often, Ph.D. students
  and postdocs), scientific credit in the community is essential.
  Thank you for helping us!

  For any use of FHI-aims, please cite:

    Volker Blum, Ralf Gehrke, Felix Hanke, Paula Havu, Ville Havu,
    Xinguo Ren, Karsten Reuter, and Matthias Scheffler
    'Ab initio molecular simulations with numeric atom-centered orbitals'
    Computer Physics Communications 180, 2175-2196 (2009)
    http://dx.doi.org/10.1016/j.cpc.2009.06.022


  The ELSI infrastructure was used in your run to solve the Kohn-Sham electronic structure.
  Please check out http://elsi-interchange.org to learn more.
  If scalability is important for your project, please acknowledge ELSI by citing:

    V. W-z. Yu, F. Corsetti, A. Garcia, W. P. Huhn, M. Jacquelin, W. Jia,
    B. Lange, L. Lin, J. Lu, W. Mi, A. Seifitokaldani, A. Vazquez-Mayagoitia,
    C. Yang, H. Yang, and V. Blum
    'ELSI: A unified software interface for Kohn-Sham electronic structure solvers'
    Computer Physics Communications 222, 267-285 (2018).
    http://dx.doi.org/10.1016/j.cpc.2017.09.007


  For the real-space grid partitioning and parallelization used in this calculation, please cite:

    Ville Havu, Volker Blum, Paula Havu, and Matthias Scheffler,
    'Efficient O(N) integration for all-electron electronic structure calculation'
    'using numerically tabulated basis functions'
    Journal of Computational Physics 228, 8367-8379 (2009).
    http://dx.doi.org/10.1016/j.jcp.2009.08.008

  Of course, there are many other important community references, e.g., those cited in the
  above references. Our list is limited to references that describe implementations in the
  FHI-aims code. The reason is purely practical (length of this list) - please credit others as well.

------------------------------------------------------------
          Leaving FHI-aims.
          Date     :  20211124, Time     :  193220.404

          Computational steps:
          | Number of self-consistency cycles          :           58
          | Number of SCF (re)initializations          :            6

          Detailed time accounting                     :  max(cpu_time)    wall_clock(cpu1)
          | Total time                                 :        2.056 s           2.058 s
          | Preparation time                           :        0.078 s           0.077 s
          | Boundary condition initalization           :        0.000 s           0.000 s
          | Grid partitioning                          :        0.032 s           0.033 s
          | Preloading free-atom quantities on grid    :        0.018 s           0.017 s
          | Free-atom superposition energy             :        0.014 s           0.015 s
          | Total time for integrations                :        0.359 s           0.364 s
          | Total time for solution of K.-S. equations :        0.040 s           0.040 s
          | Total time for density & force components  :        0.229 s           0.235 s
          | Total time for mixing                      :        0.021 s           0.021 s
          | Total time for Hartree multipole update    :        0.056 s           0.054 s
          | Total time for Hartree multipole sum       :        0.329 s           0.330 s
          | Total time for total energy evaluation     :        0.002 s           0.000 s
          | Total time NSC force correction            :        0.044 s           0.045 s
          | Total time for scaled ZORA corrections     :        0.000 s           0.000 s

          Partial memory accounting:
          | Residual value for overall tracked memory usage across tasks:     0.000000 MB (should be 0.000000 MB)
          | Peak values for overall tracked memory usage:
          |   Minimum:        0.087 MB (on task 3 after allocating h_times_wave)
          |   Maximum:        0.186 MB (on task 0 after allocating h_times_wave)
          |   Average:        0.149 MB
          | Largest tracked array allocation:
          |   Minimum:        0.048 MB (gradient_basis_wave on task 3)
          |   Maximum:        0.116 MB (gradient_basis_wave on task 0)
          |   Average:        0.092 MB
          Note:  These values currently only include a subset of arrays which are explicitly tracked.
          The "true" memory usage will be greater.

          Have a nice day.
------------------------------------------------------------
